# vtk DataFile Version 2.0
z-phase-transition mesh
ASCII
DATASET UNSTRUCTURED_GRID

POINTS 7600 float
3.71816283e-01 9.51715110e-01 0.0
7.35379503e-01 5.95470965e-01 0.0
1.59419699e-01 1.56222486e-01 0.0
6.26342422e-02 8.65299415e-01 0.0
6.02774475e-01 7.07895829e-01 0.0
2.01657061e-02 9.71036912e-01 0.0
8.34779231e-01 2.06900063e-01 0.0
1.88065220e-01 1.75309856e-01 0.0
3.01261425e-01 5.24346102e-01 0.0
4.33739902e-01 2.98089830e-01 0.0
6.03764211e-01 1.37283994e-01 0.0
2.82887068e-01 3.66499486e-01 0.0
4.57252556e-01 7.92100302e-01 0.0
2.00198875e-01 5.18778822e-01 0.0
5.94955867e-01 4.45558849e-02 0.0
6.01411994e-01 1.71721141e-01 0.0
5.85568417e-02 9.54523253e-01 0.0
9.64926617e-01 8.13599660e-01 0.0
3.02523514e-01 9.88423550e-02 0.0
6.85144270e-01 4.39956428e-01 0.0
1.20154975e-01 4.96885174e-01 0.0
3.03571614e-02 9.04056029e-01 0.0
2.64189700e-01 6.65687467e-01 0.0
3.11997886e-01 5.27315974e-01 0.0
5.45544762e-01 1.90611856e-01 0.0
9.70348858e-01 7.70672337e-01 0.0
9.47543004e-01 8.99139670e-01 0.0
5.97373204e-01 9.25039432e-01 0.0
8.67352808e-02 1.99591943e-01 0.0
3.48195150e-02 3.20891388e-01 0.0
3.92939765e-01 2.70262343e-01 0.0
8.29640889e-01 3.50891102e-01 0.0
2.88977818e-01 5.47878164e-01 0.0
1.40050692e-01 8.00435440e-01 0.0
7.90322570e-02 9.95516140e-01 0.0
7.76396252e-01 2.08169002e-01 0.0
1.50734978e-03 8.11894840e-01 0.0
7.01682177e-01 7.30930043e-01 0.0
7.72034706e-01 7.33832461e-02 0.0
3.61988231e-01 1.21233081e-01 0.0
8.56462595e-01 6.20699655e-01 0.0
3.34467907e-01 6.15223994e-02 0.0
3.07507928e-01 3.29616764e-01 0.0
7.23993303e-01 6.36244769e-01 0.0
8.88643249e-01 4.69717229e-01 0.0
1.23003129e-01 7.10768606e-01 0.0
7.66916421e-01 5.60729855e-01 0.0
7.73889053e-01 4.97042854e-01 0.0
5.20001303e-01 4.18602699e-01 0.0
2.69894074e-02 1.08206080e-01 0.0
3.38485590e-02 6.35424393e-01 0.0
3.12482436e-01 5.17313078e-01 0.0
9.01157681e-01 2.52486934e-01 0.0
4.07881823e-01 7.54089577e-01 0.0
2.27417895e-01 7.34827590e-02 0.0
2.92237851e-01 1.67274415e-01 0.0
9.31743506e-01 8.08570376e-01 0.0
6.29110025e-01 8.73710203e-01 0.0
8.13058134e-01 1.84912989e-01 0.0
8.90922435e-01 5.36899960e-01 0.0
8.05309856e-01 8.84141690e-01 0.0
3.19766494e-01 1.06371445e-01 0.0
2.20926085e-01 4.30386238e-01 0.0
8.13305010e-01 8.59256441e-01 0.0
1.33351918e-02 5.04613335e-01 0.0
4.10739982e-01 2.23280034e-01 0.0
1.24868802e-01 3.30762451e-01 0.0
9.44684277e-01 3.25731879e-01 0.0
5.09827605e-01 7.06494638e-01 0.0
3.67445251e-01 9.70424957e-01 0.0
9.67898449e-01 2.56729006e-01 0.0
4.97697353e-01 2.98913280e-01 0.0
2.80606015e-01 3.67234427e-02 0.0
6.12044354e-01 5.01267961e-01 0.0
4.19135726e-02 2.84168862e-01 0.0
9.09093881e-01 2.37909479e-01 0.0
1.48625871e-01 4.96089135e-01 0.0
9.73454426e-01 2.43945514e-01 0.0
6.65925696e-01 7.63792120e-01 0.0
2.38194379e-01 7.30983509e-01 0.0
3.65610031e-01 6.24152079e-01 0.0
6.31569369e-01 5.37545591e-01 0.0
9.47095219e-02 8.30201804e-01 0.0
3.25250605e-01 1.83698482e-01 0.0
4.23527963e-02 5.88673501e-01 0.0
6.78357306e-01 2.04699518e-02 0.0
5.06752169e-01 2.23536313e-01 0.0
6.45977887e-01 1.84819929e-01 0.0
6.87180487e-01 3.95615545e-01 0.0
9.45454748e-01 1.37097373e-01 0.0
3.39768567e-01 1.10461132e-01 0.0
9.24396750e-01 8.71216251e-01 0.0
2.57609778e-01 6.66499596e-01 0.0
8.14562298e-01 5.54152998e-01 0.0
5.22245934e-01 2.43480491e-01 0.0
9.42539912e-02 8.97493039e-01 0.0
8.99474263e-01 6.31827154e-01 0.0
3.41214439e-01 3.49084143e-01 0.0
7.27326674e-01 8.98046027e-01 0.0
8.91976426e-01 7.82822334e-01 0.0
6.42871126e-01 9.07492808e-02 0.0
1.63458039e-01 9.04234369e-01 0.0
6.09070931e-01 1.17963316e-03 0.0
1.07151166e-01 6.64090158e-01 0.0
4.83543757e-03 1.62032691e-01 0.0
5.47232163e-01 6.92883398e-01 0.0
6.49384969e-01 2.29815902e-01 0.0
7.11684800e-01 2.35583795e-01 0.0
3.21373725e-01 7.47661320e-01 0.0
6.50447330e-01 8.50914127e-01 0.0
6.53141519e-01 5.61339057e-01 0.0
9.63978121e-02 3.74178082e-01 0.0
2.60734904e-01 2.50908088e-01 0.0
9.74246349e-01 3.93066982e-01 0.0
8.90316124e-01 6.25112161e-01 0.0
7.99110642e-01 4.99261070e-01 0.0
5.73509579e-01 4.96835304e-01 0.0
1.87046826e-01 7.15820271e-01 0.0
2.80693429e-01 2.55925611e-02 0.0
6.47582226e-01 1.75797025e-01 0.0
9.51472658e-01 9.52936617e-01 0.0
9.13859835e-01 3.66689614e-01 0.0
1.59959523e-02 9.30995337e-01 0.0
4.33423026e-01 9.60172333e-01 0.0
9.62549220e-01 8.54953846e-01 0.0
2.97004208e-01 3.85126233e-01 0.0
8.53497709e-01 3.13400785e-01 0.0
1.76273924e-01 5.61121927e-01 0.0
9.30300636e-01 6.91350139e-01 0.0
5.65504178e-01 1.00127529e-01 0.0
6.09415124e-01 9.88612983e-01 0.0
1.42063231e-01 5.18041648e-01 0.0
8.78499945e-01 7.36129442e-01 0.0
6.99604995e-01 6.99814924e-01 0.0
3.58078162e-01 2.94626632e-01 0.0
8.09809829e-01 8.10217774e-01 0.0
8.63805026e-01 9.11936688e-01 0.0
5.11351903e-01 4.95530889e-01 0.0
7.96281887e-01 6.51651405e-01 0.0
6.96406511e-01 8.00826983e-01 0.0
8.95531655e-01 3.32575324e-01 0.0
3.81492335e-01 9.33569647e-02 0.0
5.80101831e-01 3.37804745e-02 0.0
4.69615804e-01 5.44412262e-01 0.0
2.82997444e-01 5.85761424e-01 0.0
2.41439144e-02 3.81662528e-02 0.0
8.25092387e-01 3.63024134e-01 0.0
1.26546970e-01 5.17207140e-01 0.0
7.67024650e-01 2.20836916e-01 0.0
6.20781007e-01 8.59717265e-02 0.0
4.69996805e-02 5.32819694e-01 0.0
5.38642934e-01 6.41985983e-01 0.0
7.29458439e-01 9.73694394e-01 0.0
5.15749011e-01 3.20557600e-01 0.0
7.89007753e-01 2.67100016e-01 0.0
4.39834212e-01 7.98721555e-02 0.0
2.59973357e-02 9.61335045e-01 0.0
8.40041529e-01 6.96250788e-01 0.0
4.12014034e-01 1.65573515e-01 0.0
1.39363804e-01 2.51478157e-01 0.0
5.43025012e-01 7.13671173e-01 0.0
6.58882423e-01 2.86843459e-01 0.0
9.56606367e-01 7.38618860e-01 0.0
5.57997268e-01 6.13324725e-01 0.0
4.17607908e-01 2.52394859e-01 0.0
3.51142211e-01 7.59253126e-01 0.0
7.65729985e-03 1.16960358e-01 0.0
4.68426782e-02 4.80259964e-02 0.0
8.48648639e-01 7.01042346e-01 0.0
4.77754762e-01 9.92937138e-02 0.0
4.92400698e-01 4.69309948e-01 0.0
1.70630184e-01 4.39271005e-01 0.0
3.98280528e-01 6.17483946e-01 0.0
6.34592265e-01 4.01543310e-02 0.0
3.78677261e-01 6.28050362e-01 0.0
5.13172126e-01 8.52069266e-01 0.0
6.62274088e-01 1.57225600e-01 0.0
7.12536381e-02 6.46669770e-01 0.0
1.74918186e-02 5.84883561e-01 0.0
9.37778729e-01 5.72418731e-01 0.0
3.89846662e-01 6.48166286e-01 0.0
4.57672761e-01 5.46511221e-01 0.0
9.41962367e-01 3.86110488e-01 0.0
9.56448925e-01 9.10175427e-01 0.0
1.97076047e-01 7.10801224e-02 0.0
9.72674643e-02 1.62229528e-02 0.0
9.36762921e-02 6.76329108e-01 0.0
6.38410523e-02 3.16360723e-01 0.0
8.47149715e-01 2.04289901e-02 0.0
8.10033875e-01 2.78308650e-01 0.0
1.16182835e-01 6.95196905e-01 0.0
6.38368826e-01 8.82062516e-01 0.0
7.39531632e-01 8.08567472e-01 0.0
2.77686952e-01 1.72118893e-01 0.0
7.45796819e-01 8.12643515e-01 0.0
9.88123351e-01 4.07170833e-01 0.0
3.70142066e-01 7.75374370e-01 0.0
3.41971877e-01 9.31849653e-01 0.0
8.54807887e-01 4.31978520e-01 0.0
7.48088816e-01 7.53862642e-01 0.0
1.06113227e-01 8.99759217e-01 0.0
5.02774126e-01 8.29032851e-01 0.0
3.16316101e-01 8.93848324e-01 0.0
3.91620687e-01 1.97786081e-02 0.0
9.08017153e-01 9.33439608e-02 0.0
3.21624086e-01 9.45390635e-01 0.0
9.51110311e-01 5.73308322e-01 0.0
6.33236990e-01 4.48952653e-01 0.0
2.94863511e-01 3.27308806e-01 0.0
6.72773566e-01 7.47030095e-01 0.0
7.90186566e-01 7.95672097e-01 0.0
9.25937969e-02 4.94329241e-01 0.0
6.58121159e-02 5.43605504e-01 0.0
4.36701316e-01 8.95159192e-01 0.0
3.51115069e-01 1.16011112e-01 0.0
1.37771842e-01 7.63459343e-01 0.0
6.20587963e-01 9.63586127e-02 0.0
8.34962212e-02 6.99508714e-01 0.0
7.38772116e-02 8.16988240e-01 0.0
7.11691645e-01 8.53351352e-02 0.0
8.32569006e-02 9.85697561e-01 0.0
3.73676984e-01 3.67254362e-01 0.0
8.10869429e-01 9.46072157e-01 0.0
9.93021481e-01 7.57498581e-01 0.0
3.80327906e-01 8.51109115e-02 0.0
7.72283468e-01 5.58223649e-01 0.0
4.28446306e-01 9.00877470e-01 0.0
1.13968241e-01 5.02734848e-01 0.0
1.59754702e-02 4.74815561e-01 0.0
5.72536503e-02 1.23031085e-01 0.0
1.14401609e-01 6.52674501e-01 0.0
7.48893269e-01 5.84630677e-01 0.0
9.67900803e-01 3.72525382e-01 0.0
2.84897871e-01 8.69014651e-01 0.0
2.19114196e-01 9.64210318e-01 0.0
4.67239549e-03 9.74435961e-01 0.0
4.33629129e-02 8.88875796e-01 0.0
5.24069287e-01 9.91943732e-01 0.0
7.67923891e-02 5.56238457e-01 0.0
9.66231503e-01 5.19415243e-01 0.0
6.32257956e-01 6.92604489e-01 0.0
4.54801837e-01 6.28096753e-01 0.0
5.85672641e-01 9.04893850e-01 0.0
3.99490149e-02 2.72644385e-01 0.0
9.47941526e-01 8.98105392e-01 0.0
4.64458777e-01 6.28103259e-01 0.0
2.76541183e-01 1.80364053e-01 0.0
4.53499735e-01 3.50679472e-01 0.0
5.82793946e-01 8.33959378e-02 0.0
9.78172150e-01 9.87200583e-01 0.0
6.94288440e-01 5.31914330e-01 0.0
3.10633771e-01 8.16829110e-01 0.0
6.86436935e-01 1.58113590e-01 0.0
9.13759380e-01 8.24391128e-01 0.0
9.45139567e-01 7.22305553e-01 0.0
6.16412049e-01 4.17222283e-01 0.0
9.39645649e-01 8.68245181e-01 0.0
4.31004848e-02 2.63225520e-02 0.0
3.76739259e-01 8.07382828e-01 0.0
9.83303858e-01 1.53469868e-01 0.0
5.97809981e-01 3.83518968e-01 0.0
9.76510203e-01 8.39760718e-01 0.0
8.45616392e-01 4.64771673e-01 0.0
4.10411532e-01 2.65746406e-01 0.0
5.44350598e-02 8.62529797e-01 0.0
8.15190284e-01 9.99000000e-01 0.0
9.91444119e-01 5.53722265e-01 0.0
7.67370533e-01 9.37035318e-01 0.0
8.45377572e-01 2.43992941e-01 0.0
4.56784351e-01 1.29992753e-01 0.0
9.56933284e-01 5.99651445e-01 0.0
2.33840926e-01 6.77364060e-01 0.0
6.09429939e-01 3.55092649e-01 0.0
1.15715537e-01 6.74378059e-01 0.0
5.17354381e-01 7.70988628e-01 0.0
5.17563249e-01 8.52662123e-01 0.0
5.57117861e-01 5.57581816e-01 0.0
8.81009927e-01 4.00080441e-01 0.0
1.30325717e-01 3.23458163e-02 0.0
7.59150217e-01 6.24015528e-01 0.0
6.98352427e-01 2.10935992e-01 0.0
1.39953741e-01 1.47254870e-02 0.0
3.45914039e-01 5.91912632e-01 0.0
3.89132666e-01 4.45286045e-01 0.0
9.10883008e-01 3.50884954e-01 0.0
5.19913615e-01 7.83935033e-01 0.0
3.99874543e-01 6.28518851e-01 0.0
8.63432304e-01 9.48409857e-01 0.0
1.39653683e-01 9.26225765e-01 0.0
4.95700451e-01 2.62360497e-01 0.0
4.61331133e-01 9.77676434e-01 0.0
[...]
CELL_DATA 15090
SCALARS z float 1
LOOKUP_TABLE default
3.29615933e+00
2.09147643e+00
2.09147643e+00
3.70727990e+00
2.87426115e+00
1.94379602e+00
1.94379602e+00
1.38023682e+01
2.03267550e+00
3.23712400e+00
1.00823366e+01
1.97360818e+00
5.43193436e+01
1.50080235e+02
2.52429365e+01
4.50099434e+00
2.38042099e+00
2.38308044e+00
2.05948292e+00
2.05948292e+00
2.26618962e+00
2.12060060e+00
2.20371796e+00
4.84224547e+00
1.97212951e+00
1.97212951e+00
2.85232424e+00
2.20371796e+00
2.05496574e+00
3.14872131e+00
2.03746861e+01
1.94965688e+00
1.94965688e+00
2.26855480e+00
3.16533526e+00
1.99811992e+00
1.71233573e+01
2.72869253e+00
3.97417018e+01
4.83663281e+00
7.39190401e+00
2.16168830e+00
1.93761732e+00
2.17617798e+00
2.33509824e+00
2.18175590e+00
2.18175590e+00
1.95365476e+00
1.92635794e+00
2.17389495e+00
2.17389495e+00
2.19196121e+00
2.22288832e+00
1.92402523e+00
2.12238430e+00
1.92402523e+00
1.98830591e+00
2.04659672e+00
3.26820620e+00
4.11106636e+00
2.14474769e+00
2.42448583e+00
2.11702652e+00
1.97269920e+00
2.13180245e+00
2.01906839e+00
1.98830204e+00
4.62331069e+01
2.07782378e+00
2.02035228e+00
2.43463418e+00
2.12143485e+00
4.46565420e+00
2.54763190e+00
2.73624260e+00
2.11147789e+00
1.95758645e+00
2.30986632e+00
2.56863817e+00
1.21146631e+01
1.89567030e+00
4.58392440e+00
2.26862370e+00
1.94378562e+00
2.11794051e+01
6.47575010e+00
1.93702093e+00
2.06434471e+00
2.13593855e+00
3.25296871e+00
2.01168236e+00
2.01168236e+00
1.95756937e+00
2.29267144e+00
3.19025714e+01
2.17710474e+00
2.17710474e+00
2.03267550e+00
2.06389445e+00
2.01627309e+00
2.85038052e+00
2.77833269e+00
1.99253097e+00
1.99716851e+00
2.13581146e+00
2.22288832e+00
2.11968971e+00
2.11968971e+00
2.07328814e+00
2.35496533e+00
1.91027742e+00
2.29720758e+01
2.09627052e+00
1.96740181e+00
2.51394986e+00
2.09628453e+00
2.03940894e+00
1.99513576e+00
2.72238249e+00
1.66692656e+01
1.59839055e+01
9.39241598e+00
2.16187760e+00
2.01588429e+00
1.14486431e+01
3.83165703e+00
2.80015683e+00
2.65756666e+00
2.96488597e+00
1.60413167e+01
1.90509685e+00
2.09877612e+00
1.93716552e+00
2.02388749e+00
1.92860565e+00
2.11702652e+00
2.05015677e+00
2.14474769e+00
2.58438557e+00
1.91793753e+00
1.90017963e+00
2.15970011e+00
2.15970011e+00
2.03559279e+00
2.09965490e+00
2.03218816e+00
2.03559279e+00
2.22941633e+00
2.03218816e+00
4.40485090e+01
2.78064278e+01
1.65713421e+01
2.02506128e+00
2.60876916e+00
2.02506128e+00
1.97269920e+00
2.00905029e+00
5.68999107e+00
2.15066454e+00
2.14337410e+00
1.96742803e+00
1.94006491e+00
2.04778166e+00
2.05635991e+00
2.15837727e+00
2.51394609e+00
4.62929516e+00
1.91187905e+00
1.27055831e+01
2.91821909e+00
2.07782378e+00
1.91722095e+00
2.01273007e+00
1.88982894e+00
2.31883672e+00
2.67771543e+00
2.65945923e+00
2.52381390e+00
1.91311240e+00
1.93658346e+00
1.94638561e+00
1.94638561e+00
2.21381611e+00
2.09513516e+00
2.09513516e+00
1.94632214e+00
9.42249141e+00
2.25179347e+00
1.98424077e+00
1.98513613e+00
1.41797050e+01
2.06174976e+00
1.93535926e+00
1.97641891e+00
1.93535926e+00
2.06174976e+00
1.95755343e+00
1.90953578e+00
3.20858247e+00
1.95656321e+00
1.90955604e+00
2.18219577e+00
1.90955604e+00
2.20864514e+00
3.55602002e+00
2.67446653e+00
2.54763190e+00
1.99606594e+00
2.11103821e+00
2.13679363e+00
2.12925325e+00
1.05634415e+01
2.22180384e+00
1.96788033e+00
1.96161239e+00
2.34361154e+00
2.00325610e+00
2.11147789e+00
2.16919752e+00
2.30986632e+00
3.47105989e+00
6.87045259e+00
2.51323442e+00
2.59526756e+00
2.46691058e+00
2.24088747e+00
1.97540754e+00
2.23626049e+00
1.97540754e+00
1.93801062e+00
2.06102343e+00
1.91653643e+00
1.91653643e+00
2.10992187e+00
1.95259935e+00
2.03422234e+00
1.91194882e+00
2.01263958e+00
1.94378562e+00
1.96720305e+00
2.24088747e+00
2.31386782e+00
1.89230104e+00
2.08200156e+00
1.98950147e+00
2.56927060e+00
2.29081306e+00
2.42349230e+00
2.10314464e+00
2.12756079e+00
2.00803080e+00
2.08852316e+00
2.08852316e+00
1.96298090e+00
1.91900499e+00
2.06034361e+00
1.93044295e+00
3.35161865e+00
2.53396174e+00
2.24776811e+00
1.96305056e+00
1.92189145e+00
2.16952475e+00
1.92189145e+00
2.89345827e+00
2.17704020e+00
2.12026635e+00
2.12026635e+00
2.19794163e+00
2.35688357e+00
1.96943967e+00
2.24829261e+00
1.93044295e+00
2.01990079e+00
2.02126040e+00
2.17617798e+00
3.25296871e+00
2.24614393e+00
2.32979356e+00
2.58129095e+00
2.03617364e+00
2.23617134e+00
2.24614393e+00
2.47652282e+00
2.41299182e+00
2.13655524e+00
2.44823607e+00
2.81746347e+00
1.95756937e+00
2.02448083e+00
2.79023058e+00
2.02448083e+00
2.22468118e+00
1.89513941e+00
1.90349298e+00
1.99081226e+00
1.99081226e+00
2.04142431e+00
2.07994829e+00
2.15914457e+00
1.95758645e+00
2.19951428e+00
1.99773181e+00
1.89451173e+00
1.98393822e+00
2.44390351e+00
2.07130924e+00
2.87369019e+00
2.21019195e+00
2.11114425e+00
2.78776984e+00
1.51481627e+01
7.16766526e+00
1.97156685e+00
2.93654259e+00
2.61717421e+00
2.19687687e+00
2.19924950e+00
2.13581146e+00
1.90546113e+00
2.44944086e+00
2.97351450e+00
2.34626813e+00
1.93049641e+00
2.06519400e+00
5.06660484e+00
2.04947769e+00
1.89443332e+00
1.94630251e+00
2.04457281e+00
2.00337626e+00
2.31986090e+00
2.31942243e+00
2.03479341e+00
1.70000000e+02
2.41434808e+01
2.16810810e+00
8.32692188e+00
2.58462437e+00
2.04471714e+00
2.05597482e+00
2.39804730e+00
2.03912504e+00
1.93253543e+00
1.93253543e+00
2.08886058e+00
2.01976095e+00
2.01976095e+00
2.63548795e+00
2.54718495e+00
1.91732312e+00
1.92413792e+00
2.09627052e+00
2.04169239e+00
2.07195656e+00
2.16340615e+00
2.00367757e+00
2.36317021e+00
1.97778957e+00
2.25951907e+00
1.98380899e+00
2.80090396e+00
2.06158890e+00
2.01660810e+00
1.89576270e+00
1.89576270e+00
2.02032560e+00
1.97334663e+00
1.98079596e+00
2.36528128e+00
2.10016786e+00
2.06606356e+00
2.34837964e+00
2.40983337e+00
2.33089195e+00
2.22880396e+00
2.38149634e+00
2.36333390e+00
1.94298527e+00
2.02896434e+00
2.02896434e+00
3.17664975e+00
2.34778507e+00
2.14313804e+00
2.37138509e+00
1.98236725e+00
2.32172302e+00
2.32172302e+00
2.67577681e+00
2.08997310e+00
1.97144791e+00
2.17377066e+00
2.39696785e+00
2.02242913e+00
2.30245400e+00
2.22533375e+00
1.91528482e+00
2.03202790e+00
1.94496664e+00
2.00825430e+00
2.24016461e+00
2.04659672e+00
2.48436543e+00
1.93551794e+00
2.13806524e+00
2.28512796e+00
2.12203854e+00
2.03739741e+00
2.13806524e+00
2.32026500e+00
1.93551794e+00
2.01182327e+00
3.29102493e+00
1.95523198e+00
1.94574269e+00
2.40617467e+00
2.29455499e+00
4.00928159e+00
1.98934873e+00
2.51835195e+00
1.95641006e+00
1.95393960e+00
2.29937459e+00
2.64938898e+00
2.17520209e+00
2.01312775e+00
2.30014976e+00
2.05758272e+00
1.99924557e+00
2.13462329e+00
1.92654952e+00
1.96454410e+00
2.06242034e+00
1.27279372e+01
2.75733969e+00
1.93716552e+00
2.20701831e+00
3.09420092e+00
2.22545484e+00
1.92269289e+00
1.96311544e+00
2.03323767e+00
1.92269289e+00
2.02035228e+00
2.05253221e+00
2.05372546e+00
1.93687290e+00
2.48167394e+00
2.05832586e+00
1.99598220e+00
1.99598220e+00
1.92860565e+00
1.93496885e+00
2.27802016e+00
4.43396107e+00
2.17216274e+00
1.89670716e+00
2.11078593e+00
1.91982691e+00
2.32333839e+00
2.00603247e+00
1.91048432e+00
1.93881379e+00
1.91048432e+00
1.95640269e+00
1.99097906e+00
1.94171398e+00
2.17010469e+00
2.30226506e+00
7.94958805e+00
1.97360818e+00
1.99071364e+00
2.17912291e+00
1.98830204e+00
1.97625613e+00
1.91810618e+00
2.30095714e+00
1.91810618e+00
2.17640438e+00
2.05055974e+00
1.96757501e+00
2.05055974e+00
2.18304630e+00
1.92675132e+00
1.91793753e+00
1.90017963e+00
2.02427203e+00
2.08357416e+00
2.24409077e+00
1.95477873e+00
2.02934967e+00
2.25627355e+00
2.30347752e+00
2.05704969e+00
1.90005556e+00
1.97350000e+00
1.97350000e+00
2.00650414e+00
1.90005556e+00
2.02947137e+00
3.28993921e+00
3.59903705e+00
2.03098810e+00
1.94623323e+00
2.00843687e+00
1.89001850e+00
2.15352479e+00
2.01835162e+00
2.04131644e+00
1.91734726e+00
1.91734726e+00
2.19734317e+00
3.02389934e+00
2.28527732e+00
2.19925301e+00
2.89154004e+00
2.25214150e+00
2.41468311e+00
2.11773339e+00
2.36766396e+00
1.98370959e+00
1.98370959e+00
2.32369842e+00
2.11773339e+00
2.06277521e+00
2.06277521e+00
2.40488415e+00
2.33333358e+00
1.94058954e+00
1.97348636e+00
2.05611975e+00
2.09445872e+00
2.08079842e+00
2.92985690e+00
2.24150490e+00
2.24150490e+00
1.93278062e+00
2.48184794e+00
1.91311240e+00
2.45676943e+00
2.16843202e+00
2.21381611e+00
2.99264791e+00
2.50940340e+00
2.02614202e+00
2.43250722e+00
2.45676943e+00
2.32158254e+00
2.18171115e+00
2.08079842e+00
2.10749303e+00
2.39147092e+00
2.39147092e+00
1.94643107e+00
1.96709521e+00
1.94643107e+00
1.96709521e+00
1.96145356e+00
1.98617494e+00
1.93929450e+00
2.00072553e+00
1.94089424e+00
2.03001439e+00
2.21599850e+00
2.08969565e+00
1.97692568e+00
1.97692568e+00
2.18999787e+00
2.13661217e+00
2.27720779e+00
1.94013786e+00
1.96125108e+00
1.94487550e+00
7.58690571e+00
2.93673293e+00
2.02624096e+00
1.91202724e+00
2.15075507e+00
2.00966518e+00
1.91276502e+00
1.92099896e+00
2.09431150e+00
1.98513613e+00
1.95492191e+00
2.38724568e+00
2.50919363e+00
2.23102975e+00
1.92427511e+00
1.89144443e+00
1.94336994e+00
2.65632043e+00
1.12723433e+01
4.23468675e+00
4.09535675e+00
2.23918992e+01
1.03653753e+01
2.03423258e+00
1.88944445e+00
1.97085446e+00
2.17108856e+00
2.16120046e+00
2.16120046e+00
2.12487196e+00
2.12487196e+00
2.12764484e+00
1.92673026e+00
1.90953578e+00
2.29775371e+00
2.21236662e+00
2.14974054e+00
2.38348004e+00
1.96366122e+00
1.96366122e+00
1.94341707e+00
1.95656321e+00
2.13676148e+00
2.13523122e+00
2.02945955e+00
1.93104044e+00
2.00325610e+00
1.93104044e+00
2.09056156e+00
1.96788033e+00
2.19286900e+00
2.06862251e+00
3.37273745e+00
2.81937240e+00
1.96161239e+00
2.06862251e+00
5.10952892e+00
4.50054980e+00
3.08104245e+00
1.89567030e+00
8.49153180e+00
2.26322093e+00
1.96517536e+00
2.14080524e+00
1.93684002e+00
2.17526289e+00
2.17526289e+00
2.13771834e+00
2.16555572e+00
2.84158012e+00
1.90333060e+00
1.89859600e+00
1.99336445e+00
1.92499330e+00
2.41310464e+00
2.05220607e+00
2.41310464e+00
1.95259935e+00
1.92663802e+00
1.90255021e+00
1.90255021e+00
1.98801930e+00
2.04175766e+00
2.20090183e+00
2.01404101e+00
2.20881514e+00
2.03422234e+00
2.20881514e+00
1.99955181e+00
2.34011218e+00
2.11310880e+00
2.09872754e+00
1.89853115e+00
1.99871940e+00
1.96714582e+00
1.90108209e+00
2.12862975e+00
2.50489261e+00
1.97511478e+00
1.97511478e+00
1.89465916e+00
1.91252453e+00
2.10442691e+00
2.13077287e+00
2.10442691e+00
2.04871101e+00
2.55533257e+00
1.92033629e+00
1.92033629e+00
1.93988750e+00
2.04529521e+00
2.16011290e+00
2.06489193e+00
1.91900499e+00
2.28037094e+00
1.98928228e+00
2.01540695e+00
1.93751808e+00
1.88937364e+00
2.01729925e+00
2.01729925e+00
2.02637387e+00
2.23774714e+00
2.27342484e+00
1.94509392e+00
2.16011290e+00
2.02248813e+00
2.29363132e+00
2.29223237e+00
2.07929258e+00
2.18243446e+00
1.89316301e+00
1.90654467e+00
2.13392548e+00
1.90989522e+00
1.90989522e+00
2.60301237e+00
1.95269513e+00
2.08793431e+00
2.33889978e+00
3.35161865e+00
3.23004234e+00
5.29212131e+00
2.25131809e+00
1.96305056e+00
1.94770304e+00
1.95312264e+00
1.94770304e+00
2.03827365e+00
5.72924382e+00
3.19767637e+00
2.00912806e+00
2.00912806e+00
1.93702093e+00
2.19729911e+00
1.94788522e+00
1.95267212e+00
1.95267212e+00
1.97408278e+00
2.07615820e+00
2.08883040e+00
1.97408278e+00
2.07567179e+00
1.92241904e+00
2.24199765e+00
2.02126040e+00
2.17684759e+00
1.96807365e+00
1.92932748e+00
2.19814413e+00
2.16168830e+00
2.33850014e+00
1.97258437e+00
1.97258437e+00
2.19796473e+00
1.92152482e+00
1.98544999e+00
2.03617364e+00
2.21799742e+00
1.93761732e+00
1.89513941e+00
2.63830382e+00
2.11093713e+00
2.08663294e+00
1.99787964e+00
2.02186702e+00
1.90349298e+00
2.12305509e+00
1.91729536e+00
2.11998377e+00
1.99773181e+00
2.03997261e+00
2.00828775e+00
2.38030801e+00
2.38030801e+00
2.01369341e+00
1.96557566e+00
1.98928228e+00
2.00276278e+00
2.01854974e+00
2.01854974e+00
2.19794163e+00
2.26008680e+00
2.03677632e+00
1.99811992e+00
2.21972686e+00
5.32494448e+01
1.96770336e+00
2.26212228e+00
2.04879620e+00
1.94803892e+00
2.15113177e+00
2.21513219e+00
2.30278627e+00
1.90991875e+00
2.11169358e+00
2.12978781e+00
2.06881268e+00
2.09348632e+00
2.45612102e+00
2.34317978e+00
2.11848884e+00
1.90137155e+00
1.92133869e+00
1.92133869e+00
2.10608070e+00
1.89464788e+00
2.34699281e+00
2.11115169e+00
2.07950726e+00
2.13655524e+00
2.42188337e+00
1.91370291e+00
1.91910753e+00
1.91910753e+00
2.16149437e+00
2.16149437e+00
1.93538833e+00
2.22120303e+00
2.50298628e+00
2.01583173e+00
1.89200662e+00
2.14476993e+00
2.43546726e+00
2.02519306e+00
2.04653517e+00
2.07208278e+00
2.07016644e+00
1.95955303e+00
1.90503021e+00
1.91251714e+00
2.03312222e+00
2.26212228e+00
1.68098043e+01
4.67549017e+00
2.38612263e+00
2.07941115e+00
2.14963779e+00
1.92050613e+00
2.06824356e+00
1.96566691e+00
2.06596173e+00
1.97156685e+00
2.16738898e+00
2.28161545e+00
1.98280521e+00
2.33639296e+00
1.93080272e+00
2.43030609e+00
7.35017759e+00
2.04457281e+00
2.10759542e+00
2.06081151e+00
1.94630251e+00
1.95331273e+00
1.89151204e+00
2.03479341e+00
1.96883397e+00
1.96883397e+00
2.26286302e+00
2.06037846e+00
4.95503752e+00
2.36334299e+00
2.19835060e+00
2.29737572e+00
3.80676323e+00
1.11841557e+01
8.97697262e+00
1.92092615e+00
1.92092615e+00
1.95983879e+00
2.17108890e+00
2.08295992e+00
2.33581362e+00
2.26804016e+00
2.05355533e+00
2.16677655e+00
2.26777343e+00
2.05586907e+00
1.93275394e+00
2.03876213e+00
1.97706555e+00
1.96882721e+00
2.16181894e+00
1.93419024e+00
2.07510503e+00
1.90926863e+00
2.15404037e+00
2.07940340e+00
1.89544221e+00
2.16015859e+00
1.97636346e+00
2.01136962e+00
1.94372794e+00
2.20647711e+00
2.26101799e+00
2.00089159e+00
2.34144743e+00
2.26101799e+00
2.38769072e+00
2.04188957e+00
1.95208695e+00
1.95052235e+00
2.29646638e+00
1.91732312e+00
2.62374264e+00
1.93190942e+00
2.00826846e+00
2.04607853e+00
2.00766374e+00
1.94776834e+00
1.94776834e+00
1.90441698e+00
1.90441698e+00
1.92436357e+00
2.08886058e+00
2.26965183e+00
1.94868734e+00
1.94105701e+00
1.94171398e+00
2.18460011e+00
1.93189272e+00
1.93189272e+00
2.29351619e+00
1.92516263e+00
2.02518887e+00
1.89444186e+00
1.89589625e+00
1.89319003e+00
2.04623427e+00
1.89319003e+00
1.95526599e+00
2.28492889e+00
2.07637135e+00
1.89589625e+00
2.20205792e+00
2.33645283e+00
2.17619646e+00
1.94136443e+00
1.94136443e+00
2.00367757e+00
2.05629507e+00
2.21775209e+00
1.90543906e+00
1.94662623e+00
1.96740181e+00
1.97545707e+00
2.18968489e+00
1.94662623e+00
2.04268114e+00
1.92455045e+00
2.56112677e+00
1.92455045e+00
2.03415714e+00
2.33695679e+00
2.02032560e+00
2.07400029e+00
1.96878404e+00
1.96878404e+00
1.94573972e+00
2.15346062e+00
1.98380899e+00
1.91023510e+00
2.06158890e+00
2.13882892e+00
2.23361763e+00
1.89283200e+00
2.23361763e+00
1.89283200e+00
2.17312449e+00
2.20996223e+00
1.89972073e+00
2.08543043e+00
1.98185484e+00
2.22783353e+00
2.22783353e+00
2.38122475e+00
2.53659218e+00
2.19514490e+00
2.14435597e+00
2.36060266e+00
1.94716488e+00
1.92772259e+00
2.09628453e+00
1.97520504e+00
2.00167547e+00
2.00167547e+00
2.04337103e+00
2.04337103e+00
2.27527294e+00
2.12477256e+00
2.03909524e+00
2.04471714e+00
2.36974319e+00
2.36990868e+00
2.13822899e+00
1.97046858e+00
2.12006762e+00
1.98224255e+00
1.98999038e+00
3.94355217e+00
1.94388445e+00
1.91887218e+00
1.96521250e+00
1.91887218e+00
2.38445969e+00
2.36428770e+00
2.40983337e+00
2.08989764e+00
2.79976250e+00
2.00265283e+00
1.94980302e+00
2.13986346e+00
2.13986346e+00
2.23420823e+00
2.03862126e+00
1.97412972e+00
1.99513576e+00
2.05060183e+00
1.95268123e+00
2.01195996e+00
2.63430625e+00
2.10099113e+00
1.94218310e+00
2.01588429e+00
2.33423118e+00
1.94729766e+00
2.10615536e+00
2.50676816e+00
2.05245461e+00
2.03224633e+00
2.11474198e+00
5.29067298e+00
2.27778987e+00
2.01182327e+00
1.99572843e+00
2.50169426e+00
1.99572843e+00
2.33905967e+00
1.90983022e+00
1.91947950e+00
2.24717215e+00
1.89036422e+00
1.94857570e+00
2.10925915e+00
2.21881871e+00
2.20472796e+00
1.89036422e+00
2.04761356e+00
2.30530846e+00
1.96771147e+00
1.92732152e+00
1.92732152e+00
2.03025591e+00
2.42004393e+00
1.90880464e+00
1.91720133e+00
2.14670993e+00
2.15116075e+00
2.15116075e+00
2.01312775e+00
2.31272714e+00
1.94100653e+00
1.90880464e+00
2.07269796e+00
1.94100653e+00
1.91528482e+00
2.04026279e+00
2.06031937e+00
1.92199505e+00
2.40393195e+00
2.21661938e+00
1.99269325e+00
2.03303416e+00
2.28158817e+00
1.90769848e+00
1.90769848e+00
1.97486045e+00
2.51974878e+00
1.97486045e+00
2.13667665e+00
2.13667665e+00
1.96767747e+00
1.92091352e+00
2.13746652e+00
2.17456591e+00
2.17456591e+00
2.13746652e+00
2.43200323e+00
1.99019501e+00
3.93172236e+00
1.90855248e+00
2.01541582e+00
1.88955819e+00
1.88955819e+00
2.07826898e+00
2.08675478e+00
2.59959734e+00
2.02447628e+00
2.00987361e+00
2.23903076e+00
1.98236725e+00
2.09014862e+00
2.03739741e+00
2.40771669e+00
1.95523198e+00
1.90716465e+00
1.90716465e+00
2.54108702e+00
2.23025510e+00
1.92262878e+00
2.08031059e+00
1.89702744e+00
1.89702744e+00
1.95688701e+00
1.94218310e+00
2.40617467e+00
2.24711679e+00
2.10461337e+00
1.94461373e+00
1.97077246e+00
2.06576827e+00
2.10975126e+00
2.12241584e+00
2.37539050e+00
2.37620954e+00
2.06576827e+00
1.96741342e+00
1.90509685e+00
2.09877612e+00
2.10307865e+00
2.10687419e+00
1.95006993e+00
1.92821214e+00
1.92821214e+00
1.89520649e+00
2.11882006e+00
1.96897747e+00
1.91268776e+00
1.92122011e+00
2.05758272e+00
1.92122011e+00
1.96989567e+00
2.21209303e+00
1.96454410e+00
1.93003973e+00
1.89389946e+00
2.55081968e+00
1.89780985e+00
1.89780985e+00
1.94620885e+00
1.93079363e+00
1.94620885e+00
3.37030030e+00
1.97464159e+00
1.97523318e+00
1.97523318e+00
1.95388306e+00
1.95388306e+00
2.05416230e+00
2.65187816e+00
2.17947976e+00
1.93133338e+00
2.32425213e+00
1.93133338e+00
2.26206431e+00
1.91261759e+00
1.90543906e+00
1.97140429e+00
1.97323035e+00
1.90351419e+00
2.07556880e+00
2.04625369e+00
2.50279324e+00
2.47147178e+00
2.28199871e+00
2.46747817e+00
1.91575626e+00
2.35078403e+00
2.05253221e+00
2.09958410e+00
2.25436742e+00
3.47094771e+00
3.08042661e+00
2.33503630e+00
2.11119384e+00
1.89491329e+00
1.94627538e+00
1.93713587e+00
1.93713587e+00
2.39146833e+00
1.95059917e+00
2.71219946e+00
2.21322332e+00
2.46367936e+00
1.99921674e+00
1.98208168e+00
1.98208168e+00
1.92325967e+00
1.92325967e+00
2.24594437e+00
2.14272582e+00
2.02898433e+00
1.94247028e+00
2.24283749e+00
2.06223069e+00
2.61878318e+00
1.92342946e+00
2.22435425e+00
2.83593706e+00
2.62157308e+00
1.95393960e+00
2.09470890e+00
2.70903368e+00
2.09470890e+00
2.11078593e+00
2.13127890e+00
2.26420283e+00
2.69740989e+00
2.26420283e+00
1.93496885e+00
2.01693039e+00
1.89670716e+00
1.91218700e+00
4.53534513e+00
2.43821443e+00
2.41203093e+00
1.92449929e+00
9.49499687e+00
2.48409939e+00
2.28116159e+00
2.03519789e+00
2.32333839e+00
2.08111151e+00
1.90733516e+00
2.08161829e+00
1.93171426e+00
1.93171426e+00
2.20716883e+00
2.03904861e+00
2.03119056e+00
2.41247097e+00
2.11882006e+00
2.50858965e+00
2.03025591e+00
2.09977810e+00
2.09977810e+00
2.54033496e+00
2.18264310e+00
2.18264310e+00
2.14794153e+00
2.14794153e+00
2.46728075e+00
2.15261096e+00
1.97626242e+00
1.92807061e+00
1.97626242e+00
1.89271098e+00
2.08380497e+00
1.92727078e+00
1.92727078e+00
1.93148259e+00
2.19146773e+00
2.02732850e+00
1.97092221e+00
1.97092221e+00
1.96742803e+00
1.96218147e+00
1.99997417e+00
2.20701069e+00
1.92714371e+00
1.92847986e+00
1.92847986e+00
1.90777057e+00
1.90231893e+00
2.43882844e+00
1.90231893e+00
2.30960408e+00
2.15926435e+00
2.48256272e+00
2.01937483e+00
1.89357273e+00
2.31884250e+00
2.15366020e+00
1.89357273e+00
2.10170647e+00
1.94229744e+00
1.93997593e+00
1.93026674e+00
1.99132726e+00
2.38203839e+00
2.02867501e+00
2.02867501e+00
2.27469114e+00
2.47499345e+00
2.24311983e+00
2.01328002e+00
2.09364946e+00
2.01328002e+00
1.91214707e+00
2.02315379e+00
2.76234381e+00
2.05736566e+00
2.34997698e+00
2.02934967e+00
1.93249108e+00
1.94683542e+00
2.09690795e+00
1.89001850e+00
1.94683542e+00
2.35654844e+00
2.04256090e+00
2.17927952e+00
2.22119550e+00
2.04489578e+00
2.05998991e+00
2.04547855e+00
1.95388094e+00
1.93991428e+00
2.33967579e+00
2.47456495e+00
2.08350162e+00
1.91773806e+00
1.91773806e+00
2.13801634e+00
2.02947137e+00
1.91155164e+00
2.71148802e+00
2.07120905e+00
2.03232705e+00
2.00905029e+00
2.07456663e+00
2.00904055e+00
2.41562320e+00
1.97561522e+00
1.90868741e+00