# vtk DataFile Version 2.0
z-phase-transition mesh
ASCII
DATASET UNSTRUCTURED_GRID

POINTS 8640 float
2.00000000e-03 2.79793574e-02 0.0
5.39762477e-01 2.00000000e-03 0.0
2.00000000e-03 1.00649273e-01 0.0
9.98000000e-01 2.00000000e-03 0.0
2.00000000e-03 9.98000000e-01 0.0
2.00000000e-03 1.93472290e-01 0.0
8.94786088e-01 2.00000000e-03 0.0
2.92317880e-01 2.00000000e-03 0.0
4.19959278e-01 2.00000000e-03 0.0
2.00000000e-03 5.79252460e-01 0.0
2.00000000e-03 2.00000000e-03 0.0
2.00000000e-03 9.98000000e-01 0.0
2.10719063e-01 4.97374939e-01 0.0
9.98000000e-01 2.00000000e-03 0.0
2.00000000e-03 2.69864409e-01 0.0
2.00000000e-03 9.98000000e-01 0.0
2.00000000e-03 2.00000000e-03 0.0
2.00000000e-03 2.00000000e-03 0.0
9.98000000e-01 2.00000000e-03 0.0
2.00000000e-03 2.00000000e-03 0.0
6.32939104e-01 2.00000000e-03 0.0
2.00000000e-03 9.05545473e-02 0.0
9.98000000e-01 2.00000000e-03 0.0
9.98000000e-01 1.13644371e-01 0.0
2.00000000e-03 2.00000000e-03 0.0
9.98000000e-01 2.00000000e-03 0.0
2.00000000e-03 2.00000000e-03 0.0
2.00000000e-03 2.00000000e-03 0.0
2.00000000e-03 3.70888596e-02 0.0
2.00000000e-03 2.00000000e-03 0.0
9.98000000e-01 2.60811414e-02 0.0
2.00000000e-03 2.00000000e-03 0.0
2.00000000e-03 1.03561846e-01 0.0
4.89599323e-02 9.98000000e-01 0.0
3.80159395e-01 9.98000000e-01 0.0
8.96809067e-03 2.00000000e-03 0.0
9.98000000e-01 2.00000000e-03 0.0
9.95450573e-01 5.73224476e-01 0.0
2.00000000e-03 9.98000000e-01 0.0
2.00000000e-03 2.00000000e-03 0.0
2.00000000e-03 2.00000000e-03 0.0
2.00000000e-03 2.33864836e-01 0.0
6.05419178e-01 2.00000000e-03 0.0
2.00000000e-03 6.31482739e-01 0.0
9.98000000e-01 7.79975649e-01 0.0
3.25057053e-01 2.76820024e-01 0.0
2.00000000e-03 9.98000000e-01 0.0
6.78379134e-01 7.36843816e-01 0.0
2.00000000e-03 9.98000000e-01 0.0
2.88833088e-01 2.00000000e-03 0.0
9.98000000e-01 2.00000000e-03 0.0
3.86352736e-01 5.03993801e-01 0.0
9.98000000e-01 2.00000000e-03 0.0
3.24141461e-01 4.65358717e-01 0.0
1.22911314e-01 2.00000000e-03 0.0
9.98000000e-01 2.00000000e-03 0.0
9.98000000e-01 4.62203123e-01 0.0
3.38246238e-01 2.58720668e-01 0.0
9.87642881e-01 2.00000000e-03 0.0
2.00000000e-03 2.00000000e-03 0.0
2.00000000e-03 2.00000000e-03 0.0
9.98000000e-01 6.84195327e-01 0.0
3.87673200e-01 2.00000000e-03 0.0
9.98000000e-01 8.29354675e-01 0.0
2.00000000e-03 2.00000000e-03 0.0
1.49767474e-01 2.00000000e-03 0.0
2.24190815e-01 2.00000000e-03 0.0
2.00000000e-03 2.00000000e-03 0.0
8.24038379e-01 2.00000000e-03 0.0
9.98000000e-01 2.00000000e-03 0.0
9.98000000e-01 6.14670408e-01 0.0
9.98000000e-01 2.00000000e-03 0.0
9.98000000e-01 4.26146449e-01 0.0
2.00000000e-03 2.00000000e-03 0.0
8.46576164e-01 2.00000000e-03 0.0
7.43847065e-01 9.98000000e-01 0.0
2.19778630e-01 9.98000000e-01 0.0
9.98000000e-01 2.00000000e-03 0.0
2.00000000e-03 5.20118236e-01 0.0
2.00000000e-03 9.98000000e-01 0.0
9.98000000e-01 2.00000000e-03 0.0
8.33868903e-01 6.50689757e-01 0.0
2.00000000e-03 3.61478677e-01 0.0
9.98000000e-01 2.00000000e-03 0.0
3.12985511e-01 2.00000000e-03 0.0
9.98000000e-01 2.00000000e-03 0.0
2.00000000e-03 8.67006318e-01 0.0
9.98000000e-01 2.00000000e-03 0.0
9.98000000e-01 3.37614923e-01 0.0
3.33582699e-01 2.00000000e-03 0.0
9.11697317e-01 4.36123454e-01 0.0
2.00000000e-03 2.00000000e-03 0.0
9.98000000e-01 2.00000000e-03 0.0
1.41119822e-01 7.76327210e-01 0.0
9.91687781e-01 2.00000000e-03 0.0
8.07679863e-01 5.94291246e-01 0.0
9.98000000e-01 9.98000000e-01 0.0
7.96404562e-01 2.00000000e-03 0.0
9.98000000e-01 7.66490835e-02 0.0
2.18009243e-01 2.00000000e-03 0.0
9.98000000e-01 4.59782333e-01 0.0
2.00000000e-03 2.00000000e-03 0.0
9.98000000e-01 9.98000000e-01 0.0
7.02030781e-01 7.21375560e-01 0.0
9.98000000e-01 2.00000000e-03 0.0
2.00000000e-03 2.00000000e-03 0.0
9.98000000e-01 1.15015940e-01 0.0
9.98000000e-01 2.00000000e-03 0.0
9.98000000e-01 3.33720965e-01 0.0
1.53240281e-01 2.00000000e-03 0.0
2.00000000e-03 2.00000000e-03 0.0
4.49829100e-01 2.00000000e-03 0.0
9.98000000e-01 2.00000000e-03 0.0
4.83532011e-01 2.00000000e-03 0.0
7.79527772e-01 8.77814892e-01 0.0
6.54173341e-01 2.00000000e-03 0.0
9.98000000e-01 2.00000000e-03 0.0
4.76981275e-01 2.00000000e-03 0.0
9.98000000e-01 9.98000000e-01 0.0
2.97169272e-01 2.00000000e-03 0.0
1.49297129e-01 2.22347699e-01 0.0
8.76448143e-01 2.04251942e-01 0.0
2.00000000e-03 2.00000000e-03 0.0
9.98000000e-01 2.00000000e-03 0.0
2.00000000e-03 2.00000000e-03 0.0
2.00000000e-03 2.09233364e-01 0.0
2.00000000e-03 8.85441812e-02 0.0
2.00000000e-03 2.00000000e-03 0.0
4.60707088e-01 1.22514880e-01 0.0
2.00000000e-03 8.30854230e-01 0.0
1.33838639e-02 2.00000000e-03 0.0
5.06265553e-01 2.00000000e-03 0.0
2.00000000e-03 2.00000000e-03 0.0
7.04939504e-01 2.00000000e-03 0.0
2.00000000e-03 2.00000000e-03 0.0
5.30898005e-01 9.98000000e-01 0.0
2.00000000e-03 2.00000000e-03 0.0
2.00000000e-03 2.00000000e-03 0.0
1.81014599e-01 4.26706101e-01 0.0
2.00000000e-03 2.89469991e-01 0.0
7.60649894e-01 2.00000000e-03 0.0
9.86479468e-01 2.00000000e-03 0.0
9.98000000e-01 3.81957142e-02 0.0
3.03889247e-01 2.27203807e-01 0.0
2.00000000e-03 2.00000000e-03 0.0
9.71128239e-01 2.00000000e-03 0.0
9.98000000e-01 2.00000000e-03 0.0
9.42449009e-01 2.00000000e-03 0.0
9.98000000e-01 9.98000000e-01 0.0
9.98000000e-01 2.00000000e-03 0.0
6.21965887e-01 4.88720364e-02 0.0
4.57013639e-01 2.00000000e-03 0.0
9.98000000e-01 2.00000000e-03 0.0
9.98000000e-01 2.00000000e-03 0.0
2.00000000e-03 2.00000000e-03 0.0
1.50670830e-01 2.00000000e-03 0.0
1.69156216e-01 2.22176449e-01 0.0
9.98000000e-01 8.62879772e-02 0.0
2.00000000e-03 2.00000000e-03 0.0
9.98000000e-01 4.16280914e-01 0.0
9.98000000e-01 2.00000000e-03 0.0
9.98000000e-01 4.57005423e-01 0.0
2.00000000e-03 2.00000000e-03 0.0
1.66338033e-01 9.98000000e-01 0.0
2.00000000e-03 2.00000000e-03 0.0
9.98000000e-01 1.29340142e-01 0.0
9.98000000e-01 9.98000000e-01 0.0
2.88497366e-01 2.00000000e-03 0.0
5.44762605e-01 1.23942238e-01 0.0
9.98000000e-01 9.98000000e-01 0.0
9.72260648e-01 9.98000000e-01 0.0
9.98000000e-01 2.00000000e-03 0.0
3.14530188e-01 2.00000000e-03 0.0
2.00000000e-03 8.24766133e-01 0.0
8.10298741e-01 2.00000000e-03 0.0
9.98000000e-01 2.00000000e-03 0.0
9.98000000e-01 3.82849692e-01 0.0
5.72538325e-01 2.00000000e-03 0.0
9.98000000e-01 2.00000000e-03 0.0
1.66633855e-01 1.28724020e-01 0.0
3.88674192e-01 4.82328083e-01 0.0
8.52228909e-01 8.65726886e-01 0.0
3.03329911e-01 9.52057818e-01 0.0
2.00000000e-03 3.34672501e-01 0.0
3.29728063e-01 2.00000000e-03 0.0
9.98000000e-01 2.00000000e-03 0.0
9.98000000e-01 1.85537144e-01 0.0
9.98000000e-01 5.39382025e-01 0.0
6.63320840e-01 2.00000000e-03 0.0
9.98000000e-01 2.00000000e-03 0.0
2.00000000e-03 2.00000000e-03 0.0
9.98000000e-01 2.00000000e-03 0.0
2.00000000e-03 2.00000000e-03 0.0
1.54138145e-01 2.00000000e-03 0.0
2.00000000e-03 2.00000000e-03 0.0
8.86454875e-01 2.00000000e-03 0.0
9.98000000e-01 9.98000000e-01 0.0
9.98000000e-01 2.66717056e-02 0.0
4.95423301e-01 2.00000000e-03 0.0
9.98000000e-01 2.00000000e-03 0.0
3.37294997e-01 1.14337922e-01 0.0
9.98000000e-01 1.81092977e-01 0.0
1.19513214e-01 2.00000000e-03 0.0
5.11671431e-01 4.63260077e-02 0.0
2.00000000e-03 2.00000000e-03 0.0
9.98000000e-01 2.00000000e-03 0.0
9.98000000e-01 7.70392001e-01 0.0
1.67341393e-01 2.00000000e-03 0.0
6.54149780e-01 2.00000000e-03 0.0
9.73867696e-01 9.98000000e-01 0.0
2.00000000e-03 9.98000000e-01 0.0
9.23103984e-01 9.98000000e-01 0.0
2.00000000e-03 2.00000000e-03 0.0
9.98000000e-01 7.09301497e-01 0.0
2.00000000e-03 9.98000000e-01 0.0
9.98000000e-01 2.00000000e-03 0.0
2.00000000e-03 9.98000000e-01 0.0
9.98000000e-01 5.23502015e-01 0.0
3.04995970e-01 2.00000000e-03 0.0
9.98000000e-01 8.41522312e-02 0.0
8.95762694e-01 2.00000000e-03 0.0
9.98000000e-01 5.31796530e-01 0.0
9.98000000e-01 9.38148195e-01 0.0
3.47680715e-01 9.98000000e-01 0.0
2.00000000e-03 2.00000000e-03 0.0
6.10533625e-01 9.98000000e-01 0.0
9.98000000e-01 2.00000000e-03 0.0
9.98000000e-01 3.98192389e-01 0.0
6.62236901e-01 5.84424135e-01 0.0
9.98000000e-01 3.78726859e-01 0.0
9.98000000e-01 1.82694775e-01 0.0
7.85792785e-01 2.00000000e-03 0.0
2.00000000e-03 2.00000000e-03 0.0
2.24193471e-01 2.00000000e-03 0.0
8.73031584e-01 2.00000000e-03 0.0
2.00000000e-03 9.98000000e-01 0.0
9.98000000e-01 9.01651180e-01 0.0
5.49229979e-01 2.00000000e-03 0.0
9.98000000e-01 2.00000000e-03 0.0
9.98000000e-01 2.00000000e-03 0.0
9.64075887e-01 9.98000000e-01 0.0
2.00000000e-03 2.00000000e-03 0.0
9.98000000e-01 3.89153775e-01 0.0
5.94874538e-01 2.00000000e-03 0.0
2.00000000e-03 2.74522665e-01 0.0
4.35366126e-01 1.57485357e-01 0.0
9.98000000e-01 2.00000000e-03 0.0
9.98000000e-01 5.41327392e-02 0.0
3.61960156e-02 4.38802923e-01 0.0
2.43696945e-01 2.00000000e-03 0.0
9.44881578e-01 2.00000000e-03 0.0
9.98000000e-01 2.00000000e-03 0.0
3.09997970e-01 9.98000000e-01 0.0
2.06104732e-01 2.00000000e-03 0.0
2.00000000e-03 2.00000000e-03 0.0
2.00000000e-03 2.28533284e-01 0.0
2.00000000e-03 2.00000000e-03 0.0
2.00000000e-03 2.00000000e-03 0.0
9.98000000e-01 9.98000000e-01 0.0
2.00000000e-03 2.00000000e-03 0.0
6.31619197e-01 2.00000000e-03 0.0
9.98000000e-01 5.25994745e-01 0.0
9.98000000e-01 4.52577426e-01 0.0
4.50332025e-01 8.87884383e-01 0.0
9.98000000e-01 9.98000000e-01 0.0
2.00000000e-03 2.00000000e-03 0.0
2.00000000e-03 2.00000000e-03 0.0
2.00000000e-03 2.00000000e-03 0.0
9.98000000e-01 9.98000000e-01 0.0
9.98000000e-01 2.00000000e-03 0.0
8.64092620e-01 2.00000000e-03 0.0
9.98000000e-01 9.98000000e-01 0.0
9.11566631e-01 2.00000000e-03 0.0
3.41582032e-01 2.00000000e-03 0.0
8.87291672e-01 2.00000000e-03 0.0
9.98000000e-01 2.00000000e-03 0.0
9.98000000e-01 2.00000000e-03 0.0
4.59733345e-01 9.98000000e-01 0.0
9.98000000e-01 2.00000000e-03 0.0
2.00000000e-03 2.00000000e-03 0.0
9.98000000e-01 9.98000000e-01 0.0
2.00000000e-03 2.00000000e-03 0.0
9.44565534e-02 2.00000000e-03 0.0
4.78040008e-03 3.64494734e-01 0.0
3.44178463e-01 4.36335675e-01 0.0
2.00000000e-03 2.00000000e-03 0.0
2.00000000e-03 2.00000000e-03 0.0
9.98000000e-01 2.00000000e-03 0.0
9.98000000e-01 7.66669339e-01 0.0
1.38587492e-02 2.00000000e-03 0.0
7.75043918e-01 9.98000000e-01 0.0
[...]
CELL_DATA 3963
SCALARS z float 1
LOOKUP_TABLE default
2.05111230e+01
4.99839069e+00
3.12593439e+00
1.54361798e+01
5.89426882e+00
6.06087455e+00
1.25831002e+01
1.16910681e+01
7.46868509e+00
4.74225345e+00
1.60876438e+01
9.49996604e+00
3.75491846e+00
1.55899063e+01
2.65091554e+00
7.96134944e+00
2.65091554e+00
4.79618653e+00
4.53911442e+00
1.33562193e+01
9.63930599e+00
7.83879577e+00
6.22560236e+00
6.22560236e+00
1.26785062e+01
6.55178981e+00
4.54318880e+00
3.78763504e+00
5.58996094e+00
1.07166397e+01
1.05410741e+01
8.78035516e+00
8.22506020e+00
7.12691401e+00
7.12691401e+00
5.62254661e+00
4.26241706e+00
8.07389267e+00
6.06087455e+00
7.46868509e+00
6.83289527e+00
1.05732275e+01
7.27045494e+01
4.74225345e+00
4.29487946e+00
4.09834657e+00
4.09834657e+00
8.06405776e+00
9.51741564e+00
4.45978216e+00
4.51656451e+00
1.15780746e+01
7.40893867e+00
4.20694606e+00
1.03529190e+01
8.94150438e+00
7.06747697e+00
9.97667525e+00
7.22576648e+00
5.05827358e+00
6.40739543e+00
3.12593439e+00
9.54654995e+00
1.83007017e+01
4.52760263e+00
6.61208303e+00
1.21941105e+01
2.63633432e+00
4.03060490e+00
6.17277542e+00
6.49267681e+00
5.25187015e+00
5.27019473e+00
4.37728605e+00
4.37728605e+00
4.50940365e+00
6.19610493e+00
7.13846393e+00
1.67173904e+01
8.54551540e+00
8.11791348e+00
1.25778290e+01
7.70958094e+00
5.27019473e+00
1.31175559e+01
7.86407533e+00
5.62716738e+00
5.42930360e+00
5.48004323e+00
4.98046068e+00
8.44664956e+00
3.55773442e+00
6.63399922e+00
4.39607038e+00
5.46892430e+00
4.09895349e+00
2.67909935e+00
2.67909935e+00
8.53613748e+00
3.78763504e+00
8.78035516e+00
5.58996094e+00
6.60284473e+00
5.84855698e+00
3.96675667e+00
3.96675667e+00
4.54318880e+00
5.84855698e+00
3.89699552e+00
3.42041822e+00
3.89699552e+00
8.11791348e+00
2.67445025e+00
9.14760650e+00
4.02345859e+00
3.61890634e+00
7.37168234e+00
6.38092396e+00
1.05732275e+01
6.38092396e+00
4.99839069e+00
2.36587408e+01
6.83289527e+00
9.94085972e+00
4.33994290e+00
4.33994290e+00
6.55178981e+00
9.00619108e+00
1.01440810e+01
7.72059832e+00
5.45071150e+00
7.83696157e+00
5.45071150e+00
2.85273369e+00
1.03945195e+01
6.36091445e+00
5.56042379e+00
5.56042379e+00
1.08424350e+01
1.29138855e+01
1.07704498e+01
7.01691147e+00
7.01691147e+00
8.46842401e+00
3.07170178e+00
3.07170178e+00
8.27719620e+00
7.54139074e+00
3.51303313e+00
1.15723085e+01
1.04156910e+01
5.21110094e+00
9.75771761e+00
5.44151583e+00
5.44151583e+00
9.76149467e+00
4.63926624e+00
4.51473316e+00
6.17599309e+00
2.96327618e+00
3.35491666e+00
3.75491846e+00
1.70419847e+01
4.15802139e+00
2.84416800e+00
6.17277542e+00
6.61208303e+00
9.54654995e+00
9.49996604e+00
3.93167340e+01
7.33608455e+00
7.33608455e+00
7.30910475e+00
7.86407533e+00
7.30910475e+00
9.60118130e+00
7.43978826e+00
6.82823009e+00
5.12759614e+00
5.12759614e+00
5.42930360e+00
3.88142589e+00
2.27565029e+01
4.53911442e+00
4.11626891e+00
3.88142589e+00
9.51741564e+00
3.55773442e+00
3.64260330e+00
3.64260330e+00
5.36458849e+00
3.77467585e+00
3.77467585e+00
1.07090114e+01
2.76961488e+00
1.15521616e+01
2.76961488e+00
5.35946327e+00
4.37562250e+00
3.29076936e+00
2.23011152e+00
1.35984870e+01
2.23011152e+00
4.03974616e+00
2.83931744e+00
1.36891087e+01
2.46216009e+00
4.25861283e+00
5.44539878e+00
2.94540626e+00
2.75958755e+00
2.40584916e+01
6.21881885e+00
5.21680525e+00
2.90557725e+00
2.86185882e+00
2.86185882e+00
1.13002039e+01
8.85547536e+00
4.26241706e+00
7.94305615e+00
1.03952848e+01
1.03952848e+01
3.44461097e+00
4.29899869e+00
7.86912793e+00
7.56815799e+00
5.58760754e+00
6.93946088e+00
5.78993078e+00
5.76178964e+00
2.85273369e+00
9.14091905e+00
5.49836488e+00
8.20034971e+00
3.59158421e+00
4.30824519e+00
6.39595452e+00
3.51303313e+00
5.22664375e+00
5.97438925e+00
8.19517124e+00
4.55703561e+00
4.55703561e+00
4.37899163e+00
8.09756316e+00
8.38919101e+00
4.51473316e+00
5.45309884e+00
6.17599309e+00
5.05827358e+00
6.24005654e+00
6.40739543e+00
6.68639961e+00
2.74873508e+00
2.74873508e+00
5.77322135e+00
4.73005062e+00
7.67407859e+00
3.36571658e+00
2.95608696e+00
4.09590050e+00
4.09590050e+00
4.85148087e+00
5.19193767e+00
3.65665160e+00
3.16621001e+00
3.34303628e+00
7.04040973e+00
1.24455211e+01
2.51005235e+01
2.63633432e+00
2.88594089e+01
2.67445025e+00
3.31632693e+01
1.16183990e+01
3.90126087e+00
3.90126087e+00
3.91611220e+00
5.75606374e+00
3.48487339e+00
5.33988041e+00
4.98046068e+00
5.72211562e+00
3.60561330e+00
4.04558985e+00
7.43974413e+00
9.68035805e+00
4.62660499e+00
1.84036099e+01
5.76774148e+00
4.83228584e+00
4.83228584e+00
5.63161017e+00
8.44734049e+00
3.13769875e+00
3.13769875e+00
7.86552084e+00
6.70644647e+00
3.59194694e+00
2.45673461e+00
2.46216009e+00
2.72250311e+00
9.14011633e+00
1.78017931e+01
2.75958755e+00
3.61890634e+00
4.92656308e+00
6.39005103e+00
7.27606319e+00
4.84440526e+00
4.44319321e+00
4.44319321e+00
4.84440526e+00
1.33645983e+01
1.33645983e+01
4.29899869e+00
5.67897533e+00
2.98849507e+00
4.38344251e+00
6.64709161e+00
1.20075180e+01
1.25625235e+01
1.01440810e+01
2.85633661e+01
4.16994802e+00
2.98849507e+00
3.62064002e+00
3.62064002e+00
3.77722728e+00
1.59331110e+01
5.77362134e+00
3.77722728e+00
3.40017076e+00
7.72059832e+00
1.94413899e+01
2.09620132e+00
5.25833076e+00
5.52729433e+00
3.34265474e+00
3.34265474e+00
2.43089604e+00
6.00427499e+00
3.38345301e+00
3.38345301e+00
4.36779025e+00
4.26963334e+00
3.88687990e+00
7.95319375e+00
1.05415987e+01
6.78708635e+00
6.61825055e+00
3.57100090e+00
7.04430581e+00
7.04430581e+00
6.69535335e+00
9.75485628e+00
1.11169921e+01
5.21110094e+00
5.08351463e+00
2.52261733e+01
2.14948809e+01
3.73623311e+00
3.68068270e+00
3.68068270e+00
5.75633462e+00
5.75633462e+00
5.45140419e+00
3.27880999e+00
4.57349333e+00
6.96761843e+00
4.79728009e+00
4.61361509e+00
8.82262610e+00
1.25658292e+01
3.62418355e+00
3.48682651e+00
3.62418355e+00
1.41179838e+01
5.33715226e+00
1.60752278e+01
8.42711221e+00
9.07557070e+00
1.48984606e+02
7.72717805e+00
5.08560472e+00
3.35491666e+00
5.44010757e+00
2.95608696e+00
2.99135436e+00
4.55274720e+00
4.88090061e+00
4.71972037e+00
6.48332284e+00
6.05408667e+00
5.07480859e+00
5.72464781e+00
2.98684884e+00
2.66569153e+00
2.77488945e+00
6.95431636e+00
6.21616924e+00
1.30904498e+01
1.16183990e+01
4.90087699e+00
2.45280917e+01
1.29881401e+01
7.37630689e+00
5.69450335e+00
3.62478725e+00
3.98081565e+00
3.60561330e+00
6.10648469e+00
5.04277085e+00
2.93958196e+01
9.52105380e+00
7.58552805e+00
8.29331703e+00
3.48487339e+00
5.02658600e+00
4.62660499e+00
3.79316341e+00
5.46892430e+00
3.02916101e+01
4.96294229e+00
5.76774148e+00
2.44037491e+01
6.58552869e+00
1.12450221e+01
5.39650507e+00
3.86086758e+00
3.17514880e+00
3.38657573e+00
7.11454610e+00
3.28716529e+00
8.50702203e+00
3.28716529e+00
8.50702203e+00
4.27111508e+00
9.57544296e+00
5.28627891e+00
7.01113166e+00
3.75638950e+00
7.13342081e+00
9.27738332e+00
5.78384303e+01
6.39005103e+00
3.64663361e+00
3.64663361e+00
4.55237934e+00
3.44461097e+00
7.00995540e+00
5.59664812e+00
6.05021188e+00
1.21698460e+01
1.01135186e+01
5.41702890e+00
5.53181937e+00
5.12158948e+00
3.34912150e+00
3.19707052e+00
3.19707052e+00
1.88385246e+01
3.57302018e+01
6.00671231e+00
6.00427499e+00
4.30824519e+00
4.37160023e+00
5.91926851e+00
4.36779025e+00
3.88687990e+00
3.44217638e+00
4.26963334e+00
1.90196762e+01
6.79256253e+00
3.05370294e+00
3.00167830e+00
3.48346244e+00
7.29597718e+00
1.78808197e+01
2.87143425e+00
9.31060299e+00
7.10801430e+00
8.47438360e+00
1.29896798e+01
4.32611964e+00
4.32611964e+00
4.46208379e+00
4.64865599e+00
5.25275620e+00
8.12233781e+00
5.91153046e+00
1.19439332e+01
1.33126412e+01
5.45541345e+00
5.45541345e+00
8.32661947e+00
7.15889432e+00
3.62750600e+00
3.62750600e+00
1.13435837e+01
1.13435837e+01
7.42866747e+00
4.73005062e+00
4.92572289e+00
4.49253032e+00
4.49253032e+00
2.84416800e+00
2.84899751e+00
6.30454957e+00
1.06145795e+01
5.68724646e+00
2.12961588e+00
2.15888628e+00
2.12961588e+00
6.37951290e+01
1.53830514e+01
4.68506997e+00
4.86880206e+00
1.33335356e+01
1.61318198e+01
2.92295261e+00
3.91611220e+00
8.01205835e+00
4.03060490e+00
4.88980954e+00
4.18491888e+00
7.67904298e+00
5.28503219e+00
5.22803336e+00
5.28503219e+00
6.39445659e+00
6.39445659e+00
2.10319102e+00
1.35046878e+01
1.65272527e+01
2.10319102e+00
5.01326313e+00
5.52326813e+00
4.29953585e+00
2.54186601e+00
8.26512149e+00
3.79316341e+00
7.24232802e+00
4.96294229e+00
1.19169566e+01
1.85941229e+01
6.07028360e+00
6.07028360e+00
2.22542254e+01
2.05574523e+01
1.42003801e+01
1.61640355e+01
7.35921516e+00
7.35921516e+00
8.56725125e+00
8.56725125e+00
4.68317389e+00
8.44734049e+00
4.68317389e+00
8.69625390e+00
4.02008338e+00
6.85082592e+00
8.83664069e+00
3.35990211e+00
3.35990211e+00
9.14011633e+00
9.27237487e+00
8.51294355e+00
4.10531411e+01
4.07159562e+01
1.99784631e+01
2.00283434e+01
3.90851183e+00
6.60358590e+00
6.57253171e+00
7.21921569e+00
6.91853200e+00
6.91853200e+00
3.79880944e+00
7.97262300e+00
5.58760754e+00
4.60736346e+00
1.09914963e+01
4.60736346e+00
8.32331647e+00
6.21993096e+00
2.93360282e+00
2.93360282e+00
3.27847903e+00
2.78535198e+00
4.24233334e+00
4.03884063e+00
4.69461911e+00
4.49752543e+00
1.23314053e+01
1.19656395e+01
5.09921175e+00
5.42635415e+00
1.46483520e+01
1.81244484e+01
2.24827125e+01
3.08251260e+01
5.07167825e+01
5.78842735e+01
6.43792365e+01
1.61490811e+02
4.15483166e+00
1.29567110e+01
6.55698288e+01
1.44322623e+01
5.82115931e+00
3.26195243e+00
1.61395952e+01
1.87293484e+01
7.80682363e+00
8.70896693e+00
1.73249237e+01
2.18926489e+01
1.03279514e+02
1.10012629e+02
5.42146342e+00
4.31320054e+00
5.40942997e+00
4.05058317e+00
4.05058317e+00
8.89841093e+00
3.32069086e+00
8.89841093e+00
3.32069086e+00
4.08966818e+00
3.41935152e+00
1.13258009e+01
7.75685878e+00
2.98237966e+02
2.57820223e+01
1.39708432e+01
1.33719367e+01
1.27730671e+01
1.26645945e+01
9.50115482e+00
1.49944098e+01
1.26022966e+01
1.09891719e+01
9.23257513e+01
1.77182596e+01
2.41257763e+01
6.43457383e+00
7.26719320e+00
8.82438280e+00
2.43700368e+01
5.79907127e+00
5.04709923e+00
4.63385840e+00
4.93328695e+00
3.50465107e+00
3.06828589e+00
7.26601629e+00
1.69959202e+01
5.45140419e+00
5.50114721e+00
2.80833778e+00
2.80928415e+00
2.88182331e+00
4.41627515e+00
4.08971629e+00
1.37853984e+01
9.27460145e+00
5.80326434e+01
4.61250233e+01
2.88665120e+00
3.38342993e+01
1.55254031e+01
2.52404812e+01
7.56740469e+00
7.19714224e+00
4.47755406e+00
3.21621708e+00
5.17603119e+00
3.46612052e+00
3.46612052e+00
6.13829841e+00
4.79723707e+00
3.87676190e+00
4.70452457e+00
3.91150584e+01
2.08859353e+01
1.14606146e+01
1.27288582e+01
1.54114339e+01
1.31807480e+01
7.95058491e+01
4.64865599e+00
2.77650460e+00
6.65105575e+00
5.68642073e+00
4.65238683e+00
6.99653589e+00
4.65238683e+00
4.65506490e+00
4.65506490e+00
7.42866747e+00
3.98354091e+00
3.98354091e+00
4.12364206e+00
5.33715226e+00
3.78985649e+00
5.27042774e+00
2.66569153e+00
5.85701999e+00
9.77414402e+00
6.06742676e+00
5.68724646e+00
2.04664560e+00
2.07086953e+00
2.12378076e+00
1.29881401e+01
1.66212888e+01
1.88892203e+01
1.88198655e+01
2.04664560e+00
1.17206564e+01
1.11709632e+01
2.17115966e+00
2.07227239e+00
4.16712414e+00
4.54383962e+00
2.07227239e+00
1.24520535e+01
1.65272527e+01
5.43189223e+00
5.18268094e+00
8.69554435e+00
8.63700052e+00
2.54186601e+00
7.87547933e+00
4.42989158e+00
5.48436794e+00
4.37691465e+00
1.14274379e+01
5.36728072e+00
7.66047375e+00
2.97283089e+00
2.97283089e+00
1.25516147e+01
9.60770604e+00
3.79312410e+00
3.79312410e+00
9.72300232e+00
8.83984660e+00
3.22206938e+00
3.23886414e+00
2.78535198e+00
1.91882997e+00
5.35370844e+00
5.49404934e+00
5.73479325e+00
6.72855955e+00
6.78541314e+00
6.93930697e+00
6.91728826e+00
2.09620132e+00
6.78582763e+00
6.28855328e+00
2.10722922e+00
4.97500994e+00
4.84794879e+00
4.49752543e+00
4.52055623e+00
4.59275659e+00
8.23899049e+00
4.43701862e+00
4.43701862e+00
1.36802336e+01
1.36034302e+01
1.41643411e+01
1.40960778e+01
1.31207893e+01
6.24410764e+00
7.67676359e+00
1.19613774e+01
1.20038426e+01
1.00847787e+01
1.09212272e+01
3.40000000e+02
3.30250242e+01
5.34299756e+01
1.86264236e+01
1.72880027e+01
2.23276885e+01
1.23693133e+01
4.53063811e+00
1.08950691e+01
1.13677690e+01
1.18819872e+01
1.17633272e+01
1.30493328e+01
8.58538216e+00
8.46434048e+00
8.29011360e+00
8.35948307e+00
9.52182111e+00
9.91573946e+00
9.21413288e+00
1.62769604e+01
2.03678279e+01
3.71657715e+01
3.17629582e+01
2.68116030e+01
3.03965047e+01
2.30879355e+01
2.63019992e+00
2.63019992e+00
2.64749663e+00
3.40000000e+02
1.91277947e+02
2.05541185e+02
4.74794245e+01
7.14269893e+00
7.26157175e+00
6.32131691e+00
5.28485466e+00
5.38726927e+00
6.06571043e+00
5.09523129e+00
4.91642651e+00
4.61689029e+00
4.73271733e+00
4.35411684e+00
4.39514744e+00
4.41511357e+00
3.92743583e+00
6.99416849e+00
8.77606888e+00
1.24574195e+01
2.33102192e+00
2.33548978e+00
3.56323105e+00
9.51200685e+00
4.11694661e+00
4.11694661e+00
8.57248556e+00
1.05790310e+01
9.43951518e+00
1.01452405e+01
1.79909381e+01
1.19287896e+01
2.69914971e+01
3.90833809e+01
2.56710804e+01
3.31743390e+01
3.16788565e+01
7.98093608e+01
4.17917010e+01
5.14140577e+00
5.19926931e+00
5.51245176e+00
5.44424876e+00
7.73207917e+00
7.04615663e+00
6.40079527e+00
1.67990892e+01
1.08970581e+01
8.99684394e+00
7.20828448e+01
1.63131812e+02
5.08555074e+01
1.02382476e+02
6.97222471e+01
1.67170552e+01
1.73923558e+01
2.12216289e+01
1.36277625e+01
1.31810222e+01
1.32943801e+01
5.97438925e+00
1.26178296e+01
1.23781318e+01
4.79067050e+00
3.93133815e+00
7.78570840e+00
8.39123648e+00
9.08557699e+00
1.18521612e+01
8.69964364e+01
4.58243528e+01
7.21628716e+01
3.63157835e+01
3.30825615e+01
2.55556799e+01
3.22061148e+01
6.18377309e+00
6.40778114e+00
6.92259575e+00
9.31768610e+00
7.61317527e+00
7.76547796e+00
8.42828188e+00
8.36905095e+00
3.21877789e+01
1.03270670e+01
1.09261564e+01
1.24130489e+01
1.16006812e+01
1.37919296e+01
5.51622471e+00
5.39642952e+00
4.86968773e+00
4.21570520e+00
3.99384588e+00
4.12935245e+00
4.11381505e+00
3.91019985e+00
6.01637322e+00
7.20244065e+00
8.79080652e+00
7.72148767e+00
7.76301610e+00
9.97493923e+00
1.14743588e+01
1.02070661e+01
4.18376295e+00
2.34073216e+00
2.30429345e+00
7.48360820e+00
3.04691724e+00
3.21809620e+00
2.98158619e+00
2.93112568e+00
4.63647949e+00
5.28804767e+00
5.33945665e+00
4.60907350e+00
4.48854404e+00
4.42344736e+00
8.22725919e+00
1.09456911e+01
2.39298186e+01
1.46129139e+01
1.40995417e+01
6.63062421e+01
1.94811064e+02
3.34387268e+01
3.95919015e+00
4.05312224e+00
4.51110201e+00
4.37862999e+00
4.59324592e+00
4.69450961e+00
8.57715429e+00
9.34568299e+00
7.20453331e+00
7.67461160e+00
3.75608858e+01
2.32698897e+01
9.05311472e+00
9.15630877e+00
9.90797264e+00
9.46458877e+00
8.81618151e+00
8.32362943e+00
8.09342845e+00
8.01987039e+00
7.09807280e+00
6.96879557e+00
7.44586102e+00
1.36791690e+01
3.28330826e+00
3.46153654e+00
7.93339312e+00
7.45009963e+00
6.58968384e+00
6.55991492e+00
4.84261023e+00
5.12413231e+00
5.84359288e+00
5.67938841e+00
3.76658189e+00
4.13706729e+00
3.93152440e+00
3.97566585e+00
3.70275163e+00
3.62599905e+00
3.38301368e+00
3.16919762e+00
3.35581604e+00
3.26078526e+00
7.78322346e+00
7.44878987e+00
7.10216963e+00
7.55217355e+00
9.80426055e+00
8.76135924e+00
1.65737269e+01
8.74306168e+00
8.22277893e+00
5.81266621e+00
6.02153188e+00
7.21953678e+00
6.33200198e+00
1.09573290e+01
7.75247300e+00
8.55838137e+00
1.29313651e+01
2.84901404e+00
3.77926275e+00
6.72525857e+00
9.59316132e+00
7.74864156e+00
3.06069090e+00
1.80524950e+01
3.27545026e+00
3.34899615e+00
1.18432975e+01
7.93968632e+00
6.38745475e+00
8.70365720e+00
5.13276664e+00
5.30227796e+00
5.17896501e+00
4.42344736e+00
5.87409958e+00
5.06126503e+00
2.66316684e+00
2.66347959e+00
4.26610031e+00
8.03243282e+00
6.00507320e+00
4.96674216e+00
2.99877559e+00
3.43124630e+00
2.65726122e+00
3.43538191e+00
1.29180489e+01
5.73037129e+00
5.32018247e+00
6.92682595e+00
6.76148215e+00
1.13874332e+01
1.23242476e+01
1.02522757e+01
1.01617934e+01
2.17373221e+00
2.12378076e+00
1.53302084e+01
1.53272830e+01
8.01205835e+00
8.99110719e+00
4.98522366e+00
4.16712414e+00
2.64957724e+00
2.84031074e+00
1.24244213e+01
3.11373501e+00
4.79618653e+00
1.17000581e+01
2.30310481e+01
2.50551023e+01
9.93235720e+00
1.03027951e+01
1.09439213e+01
6.82977266e+00
4.37691465e+00
9.57207223e+00
9.76857543e+00
2.78894840e+00
1.00117302e+01
3.90239582e+00
2.04686759e+00
5.07644655e+00
5.10367664e+00
5.18140957e+00
5.30349284e+00
5.20855765e+00
5.25478600e+00
5.70340318e+00
5.60356359e+00
5.53036664e+00
6.43996879e+00
6.56829529e+00
6.22634167e+00
6.41239724e+00
6.35235717e+00
5.92087937e+00
5.79719775e+00
6.13272167e+00
7.25458955e+00
7.30497529e+00
7.10438605e+00
7.20842041e+00
7.16836937e+00
6.62349496e+00
5.94792837e+00
5.92425235e+00
5.81829860e+00
5.05761418e+00
4.92534300e+00
4.91376791e+00
4.80567418e+00
4.75822489e+00
4.51639160e+00
4.51196970e+00
4.59702564e+00
9.42354125e+00
9.04589002e+00
9.20847083e+00
8.79054239e+00
7.66445277e+00
7.94553169e+00
8.17070524e+00
6.38288923e+00
6.38288923e+00
6.50521196e+00
6.76786772e+00
6.62149993e+00
7.17263778e+00
7.29095859e+00
6.26363802e+00
5.73308182e+00
5.81132674e+00
1.28397761e+01
3.73418725e+00
3.73418725e+00
7.92643433e+00
8.37868553e+00
7.60807458e+00
6.80909433e+00
6.90660423e+00
5.36934014e+01
4.53237777e+01
3.17610980e+01
3.97079923e+01
3.78669996e+01
1.75672841e+01
1.90216140e+01
2.27491816e+01
9.14393158e+00
9.40397689e+00
1.02028999e+01
1.03344710e+01
1.24061636e+01
9.37112728e+01
4.47444374e+01
1.35409935e+01
2.78574744e+01
8.59869083e+00
8.58067939e+00
1.28539065e+01
1.07958089e+01
9.98094096e+00
6.71666395e+00
6.42685266e+00
5.91946566e+00
5.89362931e+00
2.45113771e+00
4.87075126e+00
5.36425575e+00
5.14698663e+00
5.22362311e+00
4.21374350e+00
7.24641857e+00
7.43411757e+00
7.56182850e+00
7.46750870e+00
8.07022874e+00
9.33147911e+00
9.15024060e+00
8.74250612e+00
8.98513911e+00
8.35461213e+00
8.53747226e+00
9.58590578e+00
1.06415676e+01
2.97081386e+01
2.45837880e+01
1.92517870e+01
2.21952928e+01
2.03643169e+01
7.03049392e+00
7.33453028e+00
2.63282059e+00
2.16999181e+00
2.45215457e+00
2.38700661e+00
2.12882001e+00
2.18972993e+00
7.21201692e+01
4.34488589e+01
3.64732344e+01
2.77563496e+01
4.71809779e+00
4.53063811e+00
1.64110323e+01
1.73621285e+01
1.77050454e+01
1.41513644e+01
1.43531640e+01
1.46730954e+01
1.45857450e+01
1.60558872e+01
1.56329169e+01
1.49010525e+01
1.55486187e+01
1.39963662e+01
1.35077806e+01
1.23940596e+01
1.30410703e+01
1.26959202e+01
7.58351139e+00
7.77938439e+00
7.72793511e+00
1.07190395e+01
1.03988416e+01
1.00624189e+01
1.02969684e+01
9.51227271e+00
9.31893368e+00
1.53070984e+01
1.55042312e+01
1.61422274e+01
1.57918931e+01
1.67137194e+01
1.90320981e+01
1.98015198e+01
2.53012539e+01
2.25338418e+02
3.84621743e+01
3.98194015e+01
4.31562975e+01
6.02562437e+01
5.94224464e+01
7.18826927e+01
8.18615338e+01
9.19381634e+01
8.74196922e+01
7.92572565e+00
7.90716289e+00
7.65390972e+00
7.87389421e+00
6.64770929e+00
6.41901514e+00
7.04972088e+00
6.97299111e+00
6.75574448e+00
6.80846506e+00
6.27630548e+00
6.21844302e+00
5.86838607e+00
5.97568202e+00
5.94027371e+00
5.02052694e+00
4.82505822e+00
4.74122385e+00
4.80309601e+00
4.31320054e+00
4.60563361e+00
4.48963566e+00
4.51502717e+00
3.61303580e+00
3.82254120e+00
3.72866905e+00
6.29467254e+00
6.03903797e+00
4.47128698e+00
4.68071202e+00
5.12904290e+00
6.57592408e+00
8.25772150e+00
8.43094927e+00
1.56472514e+01
9.28578351e+00
1.15739753e+01
1.00538536e+01
1.07010479e+02
4.27533905e+01
1.50896924e+01
1.58980440e+02
8.15396923e+00
8.34659873e+00
9.05345188e+00
8.78928836e+00
8.97182299e+00
1.18394092e+01
1.14257496e+01
2.09726757e+01
1.57047861e+01
1.75026490e+01
1.70732960e+01
1.33674593e+01
1.22823624e+01
1.54955693e+01
1.37216678e+01
1.41222593e+01
3.54246138e+01
3.40000000e+02
1.82813154e+02
1.04227255e+02
1.32870645e+02
4.73911271e+01
5.08809380e+01
6.00493956e+01
2.32545604e+01
2.56009731e+01
3.40000000e+02
6.71439916e+01
6.06234898e+00
6.02424563e+00
5.94730243e+00
6.87896660e+00
6.92821777e+00
7.02571424e+00
6.95467925e+00
6.13028716e+00
6.18867442e+00
6.56173922e+00
2.16485673e+01
1.87697191e+01
1.98075653e+01
1.21009654e+01
1.27164726e+01
1.46041578e+01
1.39775417e+01
1.32603427e+01
1.37835643e+01
8.73224671e+00
8.64603451e+00
8.28257129e+00
8.38228578e+00
1.05142270e+01