# vtk DataFile Version 2.0
z-phase-transition mesh
ASCII
DATASET UNSTRUCTURED_GRID

POINTS 7600 float
3.48613919e-01 9.60240227e-01 0.0
7.64218623e-01 5.68318819e-01 0.0
1.88390835e-01 1.58164360e-01 0.0
1.01397736e-01 8.57831183e-01 0.0
6.16910235e-01 7.06390234e-01 0.0
1.65983553e-02 9.80637515e-01 0.0
8.54682937e-01 1.60568793e-01 0.0
2.41221376e-01 1.06357414e-01 0.0
2.75870015e-01 5.20850800e-01 0.0
4.49029205e-01 3.56531032e-01 0.0
5.34862624e-01 1.18459750e-01 0.0
2.04028501e-01 3.67671963e-01 0.0
4.67326019e-01 8.51083703e-01 0.0
2.04671762e-01 5.57489104e-01 0.0
6.16603333e-01 2.84177860e-02 0.0
5.49170657e-01 1.81917655e-01 0.0
3.23279892e-03 9.99000000e-01 0.0
9.58917691e-01 8.57914355e-01 0.0
2.84718161e-01 1.08810784e-01 0.0
6.92906491e-01 4.38286286e-01 0.0
1.04112859e-01 5.11436628e-01 0.0
1.00000000e-03 8.59212680e-01 0.0
3.10271139e-01 6.92649345e-01 0.0
3.14441010e-01 5.89055994e-01 0.0
5.35616573e-01 2.39654943e-01 0.0
9.76858781e-01 7.32676708e-01 0.0
9.99000000e-01 9.35873170e-01 0.0
5.92885996e-01 9.52001431e-01 0.0
7.17667962e-02 2.30335067e-01 0.0
1.00000000e-03 2.83079273e-01 0.0
4.29248682e-01 2.61005634e-01 0.0
8.37336127e-01 3.00955087e-01 0.0
3.57492887e-01 5.92020530e-01 0.0
1.32609701e-01 7.85430158e-01 0.0
1.17207848e-01 9.99000000e-01 0.0
8.11759701e-01 2.88694932e-01 0.0
1.00000000e-03 7.81513679e-01 0.0
6.57598711e-01 7.47309610e-01 0.0
7.78545720e-01 6.77492141e-02 0.0
3.91993860e-01 1.66925266e-01 0.0
7.99894202e-01 5.98565173e-01 0.0
3.64877128e-01 4.41796208e-02 0.0
2.77912105e-01 3.67382015e-01 0.0
6.76181320e-01 6.25062816e-01 0.0
9.00828686e-01 4.48441179e-01 0.0
1.52040914e-01 6.89675830e-01 0.0
8.19145105e-01 5.56067444e-01 0.0
7.98778355e-01 5.24703872e-01 0.0
4.96733423e-01 3.42463684e-01 0.0
4.03654812e-02 1.10886382e-01 0.0
5.44574333e-02 6.27025225e-01 0.0
2.96523071e-01 5.91783084e-01 0.0
8.46565851e-01 2.79700293e-01 0.0
3.86576780e-01 7.41639604e-01 0.0
2.15660381e-01 4.36930854e-02 0.0
3.13417658e-01 2.18836590e-01 0.0
9.49170636e-01 8.12403565e-01 0.0
5.92534861e-01 8.92873010e-01 0.0
8.93011098e-01 1.70797624e-01 0.0
8.76981745e-01 5.16095940e-01 0.0
7.87163393e-01 7.82351686e-01 0.0
3.34784364e-01 7.50201269e-02 0.0
1.61220874e-01 4.58312957e-01 0.0
7.73186038e-01 8.46699296e-01 0.0
6.77078290e-02 4.52362541e-01 0.0
3.53914423e-01 2.33265348e-01 0.0
1.67489405e-01 2.72389131e-01 0.0
9.59800565e-01 3.47274135e-01 0.0
4.33478213e-01 7.36101408e-01 0.0
3.99947976e-01 9.58864596e-01 0.0
9.99000000e-01 2.98866418e-01 0.0
5.01520751e-01 2.82174622e-01 0.0
2.44535578e-01 3.53306658e-02 0.0
6.33169831e-01 4.89248157e-01 0.0
1.00000000e-03 3.31210138e-01 0.0
9.16146962e-01 2.23833791e-01 0.0
1.80407523e-01 5.52619567e-01 0.0
8.69565366e-01 2.60047108e-01 0.0
6.13028507e-01 7.82298101e-01 0.0
2.42937654e-01 7.54554928e-01 0.0
3.47098967e-01 5.54696228e-01 0.0
6.14870653e-01 5.52630656e-01 0.0
1.32358160e-01 7.86752734e-01 0.0
3.63331872e-01 1.59676724e-01 0.0
5.57916849e-02 5.69767692e-01 0.0
6.85111814e-01 5.35389215e-02 0.0
4.61257037e-01 1.98326815e-01 0.0
6.52835915e-01 2.73865662e-01 0.0
6.55175205e-01 4.71259471e-01 0.0
9.99000000e-01 1.33489277e-01 0.0
3.28713691e-01 8.48007928e-02 0.0
9.21867941e-01 8.19058017e-01 0.0
2.54782994e-01 7.22000806e-01 0.0
7.91904533e-01 5.45227441e-01 0.0
4.59171180e-01 2.57349936e-01 0.0
1.04060423e-01 8.99854990e-01 0.0
8.91434766e-01 6.20972299e-01 0.0
3.59823857e-01 3.48015683e-01 0.0
7.39005176e-01 9.06017143e-01 0.0
9.33630775e-01 8.07923868e-01 0.0
6.50022043e-01 1.47049215e-01 0.0
1.79040723e-01 9.52619674e-01 0.0
6.31575102e-01 1.00000000e-03 0.0
1.55531728e-01 6.69102212e-01 0.0
2.90906261e-03 1.72464503e-01 0.0
5.34440904e-01 7.01301157e-01 0.0
6.27439434e-01 2.77063270e-01 0.0
7.07473189e-01 2.21398381e-01 0.0
2.87079397e-01 7.57626968e-01 0.0
6.57384873e-01 8.65316105e-01 0.0
6.15053153e-01 5.01970585e-01 0.0
1.19593438e-01 4.29225518e-01 0.0
2.22679844e-01 3.09841269e-01 0.0
9.84773182e-01 3.92805104e-01 0.0
8.75575844e-01 5.73777110e-01 0.0
8.35733563e-01 4.70503198e-01 0.0
5.44595968e-01 5.33613871e-01 0.0
1.17229712e-01 6.59328429e-01 0.0
2.80021048e-01 3.64669384e-02 0.0
6.65555180e-01 1.64606964e-01 0.0
9.99000000e-01 9.44486834e-01 0.0
9.05302764e-01 3.37139004e-01 0.0
2.05901596e-02 9.53796822e-01 0.0
4.78049200e-01 9.04952766e-01 0.0
9.53428224e-01 8.71516688e-01 0.0
3.18771082e-01 3.85369044e-01 0.0
8.73609663e-01 2.83406085e-01 0.0
2.34037821e-01 5.97926515e-01 0.0
8.80433508e-01 6.51487551e-01 0.0
5.26686495e-01 1.25265247e-01 0.0
5.61780088e-01 9.76339288e-01 0.0
1.58922725e-01 5.15588353e-01 0.0
8.88098957e-01 6.96611692e-01 0.0
7.21660959e-01 6.77078301e-01 0.0
3.46041939e-01 3.03441230e-01 0.0
8.13631756e-01 8.11106903e-01 0.0
8.35973343e-01 9.00830018e-01 0.0
5.11432867e-01 4.44545585e-01 0.0
7.79132126e-01 6.66025770e-01 0.0
6.49041816e-01 8.43710628e-01 0.0
9.42606277e-01 2.86407728e-01 0.0
4.31830051e-01 8.80332577e-02 0.0
5.95619482e-01 1.53656854e-02 0.0
5.03840389e-01 5.59469384e-01 0.0
2.52810333e-01 5.42558155e-01 0.0
1.00000000e-03 4.51347434e-02 0.0
8.46318438e-01 3.87160589e-01 0.0
1.22172476e-01 4.74308116e-01 0.0
7.41734734e-01 2.63563610e-01 0.0
6.02811987e-01 9.12893543e-02 0.0
7.11679534e-03 5.45299494e-01 0.0
5.21672941e-01 6.80795916e-01 0.0
7.58140352e-01 9.55314647e-01 0.0
5.11052572e-01 3.00123355e-01 0.0
7.36378119e-01 2.35307832e-01 0.0
4.47183698e-01 9.19321020e-02 0.0
3.15051834e-02 9.50147411e-01 0.0
8.74637700e-01 6.98606790e-01 0.0
4.38089225e-01 9.98056187e-02 0.0
1.00000000e-03 2.62000428e-01 0.0
4.90197662e-01 7.05793905e-01 0.0
6.47681292e-01 3.45700976e-01 0.0
9.71437408e-01 7.44768568e-01 0.0
5.89031161e-01 6.26987850e-01 0.0
4.00638196e-01 2.92122961e-01 0.0
3.09994982e-01 7.71238460e-01 0.0
1.00000000e-03 1.24522172e-01 0.0
5.39983332e-02 1.10185463e-01 0.0
7.90622659e-01 6.78762698e-01 0.0
5.08258118e-01 1.11726581e-01 0.0
4.99086035e-01 4.33858423e-01 0.0
1.48723867e-01 4.85434539e-01 0.0
3.96370674e-01 6.31401504e-01 0.0
6.30321321e-01 1.00000000e-03 0.0
4.13301011e-01 6.46709173e-01 0.0
5.98660350e-01 8.14413619e-01 0.0
6.92773383e-01 1.08596275e-01 0.0
7.70877219e-02 6.82876606e-01 0.0
1.00000000e-03 5.77285090e-01 0.0
9.16896082e-01 5.46391613e-01 0.0
4.04129546e-01 6.89718984e-01 0.0
4.52731063e-01 5.54130231e-01 0.0
9.46200698e-01 3.86177358e-01 0.0
9.16058363e-01 9.51274250e-01 0.0
2.08021278e-01 8.57215076e-02 0.0
6.73637629e-02 1.00000000e-03 0.0
8.71456020e-02 6.19446952e-01 0.0
1.25224658e-03 2.94086238e-01 0.0
8.66523699e-01 1.00000000e-03 0.0
7.72258695e-01 2.48101798e-01 0.0
9.92996836e-02 6.82076550e-01 0.0
7.18661863e-01 9.21165658e-01 0.0
7.77528127e-01 8.51896004e-01 0.0
2.40652750e-01 1.26796152e-01 0.0
7.04756368e-01 8.62124229e-01 0.0
9.67834617e-01 3.60773145e-01 0.0
3.54161622e-01 7.66527372e-01 0.0
3.51924083e-01 9.41154396e-01 0.0
8.24100672e-01 4.57401235e-01 0.0
7.24388848e-01 7.48068240e-01 0.0
1.31577382e-01 8.75961813e-01 0.0
4.81663759e-01 8.50970673e-01 0.0
2.84513136e-01 8.79581035e-01 0.0
4.12226452e-01 9.59400883e-02 0.0
9.30464294e-01 1.10868461e-01 0.0
3.41305106e-01 9.05598969e-01 0.0
9.55396398e-01 5.72204642e-01 0.0
6.45160677e-01 4.53272529e-01 0.0
3.08941986e-01 3.15760249e-01 0.0
6.74946663e-01 7.01504763e-01 0.0
7.78325069e-01 8.47241316e-01 0.0
1.04414548e-01 4.93553532e-01 0.0
1.36116428e-01 4.93148570e-01 0.0
3.95565009e-01 9.58662973e-01 0.0
3.52819205e-01 1.07016637e-01 0.0
9.33078371e-02 7.80058990e-01 0.0
6.40775403e-01 5.57770357e-02 0.0
7.82950939e-02 6.87068484e-01 0.0
8.33683124e-02 7.75488766e-01 0.0
7.58111256e-01 1.19291978e-01 0.0
6.97911055e-02 9.77673205e-01 0.0
3.68618734e-01 3.38396298e-01 0.0
7.94427987e-01 9.36051094e-01 0.0
9.99000000e-01 7.92597221e-01 0.0
4.14982961e-01 9.88269846e-02 0.0
7.30855304e-01 5.56685245e-01 0.0
4.64430001e-01 8.54223632e-01 0.0
1.37570311e-01 5.88852373e-01 0.0
5.53454254e-02 5.27244824e-01 0.0
6.53491975e-02 1.58919990e-01 0.0
8.77851034e-02 6.82183477e-01 0.0
7.73156622e-01 5.95379981e-01 0.0
9.99000000e-01 3.52548360e-01 0.0
2.77962167e-01 8.72554185e-01 0.0
1.80938361e-01 9.72624483e-01 0.0
1.00000000e-03 9.99000000e-01 0.0
4.50921295e-02 8.69562169e-01 0.0
4.93132447e-01 9.83246029e-01 0.0
1.02311629e-01 5.76547480e-01 0.0
9.40071622e-01 4.88045849e-01 0.0
6.56614395e-01 6.65821348e-01 0.0
4.57023167e-01 6.32685318e-01 0.0
5.97243257e-01 9.36716734e-01 0.0
1.00000000e-03 2.01782568e-01 0.0
9.26901760e-01 9.64902322e-01 0.0
5.39436791e-01 6.95999503e-01 0.0
2.69385835e-01 1.14286929e-01 0.0
3.66624713e-01 3.27912212e-01 0.0
5.75449788e-01 1.31620426e-01 0.0
9.99000000e-01 9.95632290e-01 0.0
6.61294844e-01 4.96290621e-01 0.0
3.20056298e-01 8.42674312e-01 0.0
7.00967078e-01 1.19752847e-01 0.0
9.37884784e-01 8.40183022e-01 0.0
9.05441481e-01 6.93224561e-01 0.0
6.41940049e-01 4.08527231e-01 0.0
9.98567929e-01 8.86826014e-01 0.0
2.50572114e-02 2.59441496e-02 0.0
3.79089384e-01 7.80375628e-01 0.0
9.49466984e-01 1.79475948e-01 0.0
6.29150959e-01 4.05905931e-01 0.0
9.99000000e-01 8.19672892e-01 0.0
9.07694873e-01 4.31367390e-01 0.0
3.72863256e-01 2.00490787e-01 0.0
3.79058958e-02 8.43852820e-01 0.0
8.34690946e-01 9.99000000e-01 0.0
9.47211145e-01 5.39160792e-01 0.0
7.53597493e-01 8.71185586e-01 0.0
8.09006105e-01 2.15412773e-01 0.0
5.09940188e-01 1.37091348e-01 0.0
9.81485126e-01 5.44085154e-01 0.0
2.78119918e-01 7.25606221e-01 0.0
5.35335459e-01 3.28940970e-01 0.0
1.34097495e-01 6.98270644e-01 0.0
4.92197206e-01 7.59661343e-01 0.0
4.95413600e-01 8.56756195e-01 0.0
6.01506754e-01 5.28993174e-01 0.0
9.18118272e-01 3.71097664e-01 0.0
9.88974607e-02 6.26976041e-02 0.0
7.93333702e-01 6.55584040e-01 0.0
6.49565393e-01 1.93659498e-01 0.0
1.70468449e-01 1.62657722e-02 0.0
3.06103739e-01 6.08906109e-01 0.0
3.62629098e-01 5.11823298e-01 0.0
9.68162519e-01 3.73283631e-01 0.0
5.70376916e-01 7.86337362e-01 0.0
4.28255375e-01 6.83309650e-01 0.0
8.72534885e-01 9.38948047e-01 0.0
7.64498422e-02 9.23143347e-01 0.0
5.26231272e-01 2.97422620e-01 0.0
4.80031941e-01 9.57606188e-01 0.0
[...]
CELL_DATA 14676
SCALARS z float 1
LOOKUP_TABLE default
2.99274782e+00
2.29912835e+00
2.29912835e+00
2.11713591e+00
2.01730834e+00
1.91929623e+00
2.02952385e+00
1.99754097e+00
2.00105781e+00
1.96789843e+00
1.94221250e+00
3.83520484e+00
2.19055725e+00
2.01341158e+00
2.04798828e+00
2.13207330e+00
2.54905152e+00
2.04356913e+00
2.05414214e+00
2.05414214e+00
2.15339872e+00
2.12518089e+00
2.88276041e+00
2.59277164e+00
2.46825908e+00
2.69265863e+00
2.39227487e+00
2.46356701e+00
2.33803194e+00
1.89998508e+00
1.96119913e+00
2.79885386e+00
2.77034233e+00
2.48540024e+00
2.14338535e+00
1.96041783e+00
1.92071722e+00
1.96041783e+00
2.02952385e+00
1.97835307e+00
1.89364639e+00
2.35087605e+00
2.35087605e+00
2.04181792e+00
1.89403290e+00
1.95512715e+00
2.37083904e+00
3.16548288e+00
2.09899747e+00
1.98679468e+00
2.13729385e+00
1.89256176e+00
1.95849565e+00
1.98679468e+00
1.89201511e+00
2.17950953e+00
2.32006177e+00
2.07442179e+00
2.27561557e+00
1.99699821e+00
1.95126896e+00
1.89906366e+00
1.97141651e+00
2.04650123e+00
2.26968928e+00
1.93815874e+00
2.04700526e+00
1.93521917e+00
2.12477120e+00
2.06236555e+00
1.96169059e+00
1.96002468e+00
1.89722629e+00
2.26292446e+00
2.02542589e+00
1.96547079e+00
1.96581177e+00
2.81810536e+00
2.37961071e+00
1.96547079e+00
2.07651544e+00
1.70644392e+01
1.94221250e+00
2.41317164e+00
2.38359956e+00
2.79164368e+00
1.97711096e+00
1.99629781e+00
1.98666499e+00
1.98666499e+00
1.89029978e+00
2.25214139e+00
1.92684403e+00
1.91790774e+00
2.23203127e+00
2.01341158e+00
1.91790774e+00
2.22315399e+00
1.92065677e+00
2.50066850e+00
2.40446833e+00
2.14483916e+00
2.04356913e+00
2.06375698e+00
2.50295692e+00
2.01730834e+00
1.96855319e+00
2.82173814e+00
1.90056008e+00
1.94766739e+00
1.94766739e+00
1.92944453e+00
1.91362205e+00
2.00963736e+00
1.98024828e+00
1.97345303e+00
1.99861513e+00
2.03388623e+00
2.15423554e+00
2.02720016e+00
2.92338007e+00
2.20730411e+00
2.20730411e+00
2.29263654e+00
2.06414627e+00
1.92152002e+00
2.00029400e+00
1.92560072e+00
2.26710349e+00
1.92488176e+00
1.94475534e+00
2.07712164e+00
3.21262397e+00
2.23540191e+00
2.41787125e+00
1.91652407e+00
2.34161073e+00
1.91652407e+00
1.97484158e+00
1.98095731e+00
2.39635254e+00
2.44545383e+00
1.96867311e+00
1.92896091e+00
1.98048265e+00
3.25060987e+00
1.91626366e+00
1.91626366e+00
1.92477994e+00
2.79987831e+00
2.15927794e+00
2.15927794e+00
3.44912966e+00
2.12155605e+00
1.98445881e+00
1.96917004e+00
2.44388350e+00
1.92071722e+00
2.06624465e+00
2.11860593e+00
2.06624465e+00
1.93412642e+00
2.73536764e+00
3.45476234e+00
2.08242568e+00
2.22056028e+00
2.22056028e+00
1.89403290e+00
1.89364639e+00
2.25359969e+00
2.20729322e+00
3.00568785e+00
2.16723563e+00
2.37345905e+00
1.95512715e+00
3.33919381e+00
1.90958304e+00
2.30315472e+00
2.12542730e+00
2.40541910e+00
2.05366066e+00
2.31289164e+00
2.12763802e+00
2.51146672e+00
2.36719400e+00
2.34060379e+00
2.04453813e+00
1.99274032e+00
1.99274032e+00
2.27077624e+00
1.89256176e+00
2.01479255e+00
2.03351194e+00
2.11406962e+00
2.11406962e+00
1.90499584e+00
1.91259820e+00
1.88972705e+00
2.04132034e+00
1.94142047e+00
2.38577436e+00
2.00264823e+00
2.36307164e+00
2.14750926e+00
2.14750926e+00
1.99111985e+00
1.99111985e+00
1.89410154e+00
2.05635090e+00
1.89410154e+00
2.64673371e+00
2.93968867e+00
2.96219563e+00
2.05799367e+00
2.06258355e+00
2.30133557e+00
2.28419948e+00
1.92358360e+00
2.55259060e+00
1.92358360e+00
2.13061021e+00
2.13061021e+00
1.94142047e+00
1.91516660e+00
2.12044966e+00
2.14215713e+00
1.97349559e+00
2.11905751e+00
2.44839967e+00
2.74418900e+00
4.27022036e+00
1.92735155e+00
1.89473643e+00
2.01276994e+00
2.01276994e+00
1.92003877e+00
1.94225472e+00
2.03147731e+00
2.19448203e+00
2.02406939e+00
2.49573757e+00
2.12736659e+00
1.92412887e+00
2.06324074e+00
2.05283167e+00
2.03018299e+00
2.48057620e+00
2.06186565e+00
2.42807122e+00
1.94254363e+00
1.96789843e+00
1.95126896e+00
1.94254363e+00
1.97061283e+00
1.91923868e+00
2.35325841e+00
2.21807755e+00
2.01664840e+00
1.95494233e+00
2.25262969e+00
1.97281546e+00
2.04623599e+00
2.72699720e+00
1.95348572e+00
1.96281463e+00
1.96281463e+00
2.30949506e+00
2.58150903e+00
2.27136299e+00
2.07963033e+00
1.99458264e+00
2.07080610e+00
1.98819780e+00
2.92666660e+00
1.94973584e+00
1.94741902e+00
2.01272788e+00
1.99348879e+00
2.35778247e+00
1.93155607e+00
1.96294407e+00
2.73553763e+00
1.89043436e+00
1.92401236e+00
1.89114948e+00
1.94916220e+00
1.91213536e+00
1.99059318e+00
2.52379815e+00
1.97956583e+00
1.97956583e+00
2.00112912e+00
2.01182522e+00
2.02783885e+00
2.28495093e+00
2.11363100e+00
2.01645536e+00
1.93985759e+00
2.33540936e+00
2.36968418e+00
1.89722629e+00
1.93985759e+00
2.16652191e+00
2.16652191e+00
2.00499035e+00
2.00499035e+00
1.99737749e+00
2.03471099e+00
1.99737749e+00
1.92174767e+00
1.98136691e+00
2.00852096e+00
1.93547046e+00
1.93547046e+00
1.92065677e+00
2.14656399e+00
1.95098807e+00
1.92174767e+00
2.14284840e+00
1.99531497e+00
2.14284840e+00
2.28083692e+00
2.74038572e+00
2.02469238e+00
2.13790610e+00
2.13790610e+00
2.47089735e+00
2.39079945e+00
2.39079945e+00
2.47089735e+00
2.10517586e+00
2.66345144e+00
2.31936834e+00
2.29298301e+00
2.29298301e+00
2.75375509e+00
2.43744531e+00
1.95418619e+00
2.06856768e+00
2.09148565e+00
2.06856768e+00
1.94590673e+00
1.94590673e+00
1.95393832e+00
1.97734718e+00
1.95393832e+00
1.90056008e+00
2.54183093e+00
1.97734718e+00
1.97061358e+00
2.20402479e+00
2.02469238e+00
1.91517036e+00
1.91517036e+00
2.20444363e+00
2.69295595e+00
2.27722031e+00
2.13805393e+00
2.10209046e+00
2.13805393e+00
1.91874442e+00
2.61038467e+00
1.91083887e+00
1.99418546e+00
2.12404112e+00
2.19492576e+00
1.99962060e+00
1.99962060e+00
1.92600937e+00
1.93487522e+00
2.48161255e+00
2.68708061e+00
1.92988507e+00
2.10405300e+00
1.96770884e+00
2.04253961e+00
2.13073826e+00
2.43455910e+00
1.95140103e+00
1.95140103e+00
2.36784663e+00
1.92600937e+00
2.32912844e+00
2.32912844e+00
1.99037852e+00
1.90230932e+00
1.90230932e+00
1.99886155e+00
2.00963736e+00
2.42490865e+00
1.97345303e+00
1.99455985e+00
1.89607456e+00
1.89607456e+00
2.22462069e+00
2.21429728e+00
2.12675850e+00
2.20742977e+00
2.20742977e+00
2.02022909e+00
2.47205857e+00
2.18486444e+00
1.96600699e+00
1.96600699e+00
1.95440535e+00
1.95440535e+00
1.92488176e+00
2.08880991e+00
1.99858144e+00
2.24871699e+00
2.44473577e+00
1.94475534e+00
2.09065280e+00
2.20162521e+00
1.98853929e+00
2.06414627e+00
2.16287554e+00
2.00003763e+00
1.92755636e+00
1.95274007e+00
2.12140780e+00
2.25610532e+00
2.56191070e+00
2.15924956e+00
2.12617444e+00
2.06392571e+00
1.99193462e+00
1.99193462e+00
2.03541691e+00
2.03541691e+00
1.93801710e+00
1.93801710e+00
1.89022856e+00
2.18812953e+00
1.96379025e+00
1.92874421e+00
1.92560072e+00
1.89022856e+00
2.16857622e+00
2.09263232e+00
1.97061358e+00
2.05845033e+00
2.18707512e+00
1.90561447e+00
2.01204466e+00
2.01204466e+00
1.91328182e+00
2.13974705e+00
1.98138474e+00
1.91199567e+00
2.05909261e+00
1.90853590e+00
1.90842731e+00
2.24597870e+00
2.00228051e+00
2.05832454e+00
2.17247532e+00
2.00827853e+00
1.91143264e+00
1.98095731e+00
1.91549389e+00
1.91549389e+00
2.32034857e+00
2.02923574e+00
1.91104252e+00
2.43031060e+00
1.89702091e+00
2.07030831e+00
2.11682939e+00
2.11682939e+00
2.23540191e+00
2.11417251e+00
1.90282714e+00
1.98393456e+00
1.90421072e+00
2.28390062e+00
2.02161197e+00
1.97916351e+00
2.24823645e+00
2.31285590e+00
1.96119913e+00
1.99295639e+00
2.00827158e+00
2.00827158e+00
1.97484158e+00
2.17957509e+00
2.17957509e+00
1.93328422e+00
2.36556697e+00
1.99128736e+00
2.01380816e+00
2.21917751e+00
1.92896091e+00
2.81491879e+00
2.60990861e+00
3.82476190e+00
2.08699965e+00
2.41497208e+00
2.13923732e+00
2.10704024e+00
2.68322097e+00
2.00612291e+00
2.53011324e+00
2.00612291e+00
1.96413891e+00
1.97273563e+00
1.97273563e+00
2.19610705e+00
1.90773279e+00
2.20826503e+00
2.10913933e+00
1.98672216e+00
2.22621722e+00
2.09770032e+00
1.90921110e+00
1.91527465e+00
1.90304442e+00
1.90304442e+00
2.18682731e+00
1.96944902e+00
1.96944902e+00
2.08999921e+00
2.08999921e+00
1.94495193e+00
1.94495193e+00
2.25418991e+00
1.99934471e+00
2.12258618e+00
2.63594171e+00
2.96982926e+00
2.18055464e+00
2.23779639e+00
2.18442149e+00
2.47202985e+00
3.30293716e+00
4.54415550e+00
2.16705179e+00
2.15763566e+00
2.03513841e+00
2.03999244e+00
2.03999244e+00
2.12437801e+00
1.95928643e+00
1.95928643e+00
2.19502982e+00
2.11998441e+00
2.03513841e+00
2.06398217e+00
1.91413899e+00
2.07198728e+00
2.07198728e+00
1.95097084e+00
1.94576704e+00
2.14466018e+00
2.14466018e+00
2.12426515e+00
2.12426515e+00
2.64686479e+00
2.81722972e+00
1.94322283e+00
1.90155637e+00
2.18560811e+00
3.64853413e+00
3.99487104e+00
2.69716021e+00
1.90155637e+00
2.09255448e+00
2.09255448e+00
3.03403370e+00
2.12155605e+00
2.66970448e+00
1.94074712e+00
1.94074712e+00
2.25000520e+00
2.06766264e+00
1.89361025e+00
1.94260868e+00
1.98106366e+00
1.94260868e+00
1.98106366e+00
2.00993698e+00
1.90816820e+00
2.00993698e+00
2.43661425e+00
2.24895499e+00
2.24895499e+00
1.97835307e+00
1.89361025e+00
2.26259367e+00
2.26259367e+00
2.62979661e+00
2.08242568e+00
2.88862648e+00
2.88862648e+00
2.23367991e+00
2.45496366e+00
2.20827298e+00
1.93404409e+00
1.93404409e+00
1.94642459e+00
3.38897109e+00
1.93882721e+00
2.76656056e+00
2.76656056e+00
2.02179497e+00
2.63972068e+00
3.28524356e+00
5.23385387e+00
2.66420779e+00
2.12599526e+00
2.16384740e+00
1.97039390e+00
1.97039390e+00
2.86388458e+00
2.04455677e+00
2.62210046e+00
2.37345905e+00
2.40777893e+00
2.09622927e+00
2.12153549e+00
1.89534796e+00
1.89534796e+00
1.98293378e+00
1.96379025e+00
2.40811515e+00
2.57015935e+00
2.17433193e+00
1.93179968e+00
1.93179968e+00
2.01272993e+00
2.12417432e+00
2.35930527e+00
2.05898287e+00
2.67699796e+00
2.44510818e+00
1.88904250e+00
1.88904250e+00
5.57323429e+00
1.89431924e+00
1.89431924e+00
3.45192239e+00
2.04302377e+00
2.31289164e+00
2.13361659e+00
2.13818513e+00
2.13818513e+00
2.22614232e+00
3.12334497e+00
1.89874045e+00
1.99386036e+00
2.07625707e+00
2.46132619e+00
1.89874045e+00
1.99386036e+00
2.04607175e+00
2.41430929e+00
2.53965572e+00
1.93291696e+00
2.12044966e+00
1.89735425e+00
1.93291696e+00
1.89735425e+00
1.88960795e+00
1.90327207e+00
1.88960795e+00
1.98509267e+00
1.90122592e+00
2.29415443e+00
1.91764955e+00
2.04572450e+00
2.04572450e+00
1.91764955e+00
2.14858365e+00
1.90772698e+00
2.14400746e+00
1.90772698e+00
1.91816743e+00
1.94823536e+00
2.38069675e+00
2.15949906e+00
2.38069675e+00
2.40981551e+00
1.89277928e+00
1.93677089e+00
2.40605973e+00
2.03255641e+00
2.03724422e+00
2.19352225e+00
2.01838216e+00
1.95923004e+00
1.95923004e+00
2.01838216e+00
2.00508770e+00
2.26429149e+00
2.03255641e+00
2.10135949e+00
2.06256099e+00
2.06256099e+00
2.04020270e+00
1.89907940e+00
2.09699749e+00
1.98103371e+00
1.92728620e+00
2.00108165e+00
1.91259820e+00
1.90995786e+00
1.90995786e+00
2.20522209e+00
2.11790276e+00
2.05199672e+00
2.22698889e+00
2.15593848e+00
2.11790276e+00
1.93684116e+00
2.06290343e+00
1.98001073e+00
2.89979298e+00
1.88972705e+00
1.94764862e+00
1.93313081e+00
1.94764862e+00
2.07440281e+00
2.43201431e+00
1.91999726e+00
2.22339102e+00
1.91437322e+00
2.38337070e+00
2.99838936e+00
2.52153117e+00
1.95849565e+00
1.99108471e+00
2.39367857e+00
2.39367857e+00
1.91083887e+00
2.43072366e+00
2.01763011e+00
2.34196903e+00
2.60560404e+00
2.08691427e+00
1.95945028e+00
2.04827310e+00
3.24240800e+00
1.98426772e+00
1.98426772e+00
1.93361276e+00
2.13121845e+00
1.97692527e+00
1.99508052e+00
1.97692527e+00
3.35959971e+00
2.01274963e+00
2.01682647e+00
2.08870941e+00
1.90927731e+00
1.92808959e+00
2.27204416e+00
2.07439770e+00
2.24740395e+00
2.02688450e+00
2.06940414e+00
2.06940414e+00
3.01785948e+00
1.97809491e+00
1.96410767e+00
1.96410767e+00
2.07965880e+00
2.07965880e+00
2.12028687e+00
1.95913795e+00
1.94197347e+00
2.05799367e+00
2.12028687e+00
2.26653841e+00
2.20210393e+00
2.21954152e+00
2.20210393e+00
2.29800581e+00
2.06034966e+00
1.97157378e+00
2.26208795e+00
1.97157378e+00
2.11024972e+00
2.09617201e+00
2.09617201e+00
2.49318053e+00
1.95319141e+00
2.13154731e+00
1.90820901e+00
1.90820901e+00
2.18042589e+00
2.10124409e+00
2.11156970e+00
2.36818142e+00
2.45232986e+00
2.03422377e+00
2.03422377e+00
1.91509853e+00
1.95899694e+00
2.17733314e+00
2.12832014e+00
2.37908357e+00
1.92898629e+00
1.92898629e+00
2.00764408e+00
1.91144416e+00
1.95114336e+00
1.95319141e+00
2.14224399e+00
2.37032698e+00
2.01762335e+00
2.01696611e+00
1.91509853e+00
2.11099370e+00
2.02090019e+00
1.91846202e+00
2.11099370e+00
2.37032698e+00
1.91846202e+00
2.04621392e+00
2.37659775e+00
2.02223820e+00
2.01577946e+00
2.12620481e+00
1.94210953e+00
1.97331529e+00
2.08870941e+00
1.89707611e+00
2.25121177e+00
2.04359404e+00
1.93961919e+00
2.48044621e+00
2.17964543e+00
1.92804307e+00
1.92219124e+00
2.04756251e+00
1.92219124e+00
2.70142837e+00
2.07258886e+00
2.13087311e+00
2.13087311e+00
2.27698840e+00
2.28814238e+00
2.05196741e+00
2.05196741e+00
2.05815860e+00
2.11905751e+00
2.75597689e+00
2.25699770e+00
1.98107524e+00
2.07821293e+00
2.17683575e+00
1.95649252e+00
2.75544130e+00
1.94316201e+00
1.89436307e+00
1.89436307e+00
1.94206166e+00
1.94206166e+00
2.06932563e+00
2.05926979e+00
2.32605789e+00
1.94960683e+00
2.31069013e+00
2.14934986e+00
1.95042403e+00
1.89787652e+00
1.89787652e+00
2.14934986e+00
1.94600898e+00
1.94600898e+00
1.95917542e+00
2.19259207e+00
2.09416791e+00
2.77155803e+00
2.07839333e+00
2.07839333e+00
2.16227182e+00
2.48103465e+00
2.26769266e+00
2.09996726e+00
2.09996726e+00
1.92867128e+00
2.26769266e+00
2.07223224e+00
2.10176376e+00
2.07223224e+00
2.10176376e+00
2.37050161e+00
2.34036324e+00
1.92996150e+00
1.89065894e+00
1.89065894e+00
1.89473643e+00
2.08828549e+00
1.89296264e+00
1.89296264e+00
1.90771245e+00
2.60084966e+00
1.93901971e+00
2.69957854e+00
2.02285589e+00
2.16083081e+00
2.04702561e+00
2.45918138e+00
1.99649484e+00
2.00653233e+00
1.91124204e+00
1.91632666e+00
2.06049856e+00
1.94225472e+00
1.91632666e+00
1.97158083e+00
2.17274742e+00
2.93117615e+00
2.08385149e+00
2.08385149e+00
1.89200847e+00
2.07953913e+00
1.94181665e+00
2.00850470e+00
5.29458573e+00
2.38840285e+00
1.98420974e+00
2.00107536e+00
2.02340325e+00
2.07491492e+00
2.12026762e+00
1.92003672e+00
1.92003672e+00
2.30072346e+00
2.03147731e+00
2.53845922e+00
2.03622314e+00
1.99971285e+00
2.12198496e+00
2.15651613e+00
1.09448339e+01
6.83057697e+00
2.11188781e+00
2.00655022e+00
1.89333593e+00
2.02228430e+00
2.02228430e+00
2.12812450e+00
1.91115747e+00
2.05257687e+00
2.12812450e+00
2.52574671e+00
1.96794343e+00
2.03990643e+00
2.40617138e+00
1.89681526e+00
1.89681526e+00
1.94442725e+00
3.77101148e+00
1.95183023e+00
2.56718497e+00
2.22465647e+00
2.06324074e+00
2.16264521e+00
1.97276080e+00
2.22560838e+00
1.91036381e+00
1.89333593e+00
2.22560838e+00
2.30882314e+00
1.93953567e+00
2.14906962e+00
1.95743344e+00
2.05283167e+00
2.05827766e+00
1.93220453e+00
2.37289028e+00
2.83204978e+00
1.90667354e+00
1.94130858e+00
1.90667354e+00
2.39736044e+00
2.13713375e+00
2.14748541e+00
2.04655875e+00
1.89087456e+00
2.02768397e+00
1.90015166e+00
2.12887644e+00
2.05828029e+00
2.52271632e+00
2.06011022e+00
2.12368147e+00
2.91105320e+00
2.15296380e+00
2.25130198e+00
1.92228092e+00
1.96867766e+00
1.95342864e+00
2.15053586e+00
2.06186565e+00
2.04655875e+00
1.97533331e+00
2.06253942e+00
2.37295767e+00
2.11305746e+00
2.11305746e+00
1.95069646e+00
1.95069646e+00
1.93094854e+00
1.94609181e+00
2.07024477e+00
1.90510416e+00
2.14877278e+00
2.00900696e+00
2.01667305e+00
2.39009282e+00
2.14505409e+00
1.89906366e+00
1.98370479e+00
2.01562166e+00
1.90105397e+00
2.10194407e+00
2.10194407e+00
2.01248656e+00
2.28062649e+00
2.00441711e+00
1.90210888e+00
1.91059372e+00
1.89382864e+00
1.89382864e+00
2.55879397e+00
2.00348935e+00
1.93623854e+00
1.90752345e+00
1.96543103e+00
2.18530749e+00
2.05637322e+00
2.58374628e+00
2.37857020e+00
1.96953918e+00
1.96092859e+00
1.98784260e+00
1.98784260e+00
2.37244457e+00
1.96092859e+00
1.93855721e+00
2.07961059e+00
2.67069958e+00
2.82763345e+00
2.43197420e+00
1.96640912e+00
2.15451427e+00
1.96640912e+00
2.12560768e+00
1.94725100e+00
2.25593386e+00
1.94725100e+00
2.61862118e+00
2.10152010e+00
2.15048351e+00
2.20085512e+00
2.23763969e+00
2.49006502e+00
1.88976456e+00
1.95831594e+00
1.91239437e+00
2.20550305e+00
2.53213645e+00
1.92353559e+00
1.95831594e+00
2.22746337e+00
2.03472261e+00
2.03472261e+00
1.92353559e+00
2.23129796e+00
2.14529408e+00
2.00659498e+00
2.00659498e+00
2.31092407e+00
2.13610035e+00
2.13610035e+00
2.31300666e+00
2.06787422e+00
1.95348572e+00
2.01110397e+00
2.13955365e+00
2.75073452e+00
2.01110397e+00
2.20617726e+00
1.99458264e+00
2.67046520e+00
1.95001760e+00
1.94226633e+00
2.02799067e+00
1.94168045e+00
2.07080610e+00
1.90797071e+00
2.16343696e+00
2.15466211e+00
2.29175466e+00
2.15466211e+00
2.10133466e+00
1.94168045e+00
1.98812226e+00
2.20228137e+00
2.12296957e+00
2.64788201e+00
1.89593192e+00
2.23221631e+00
3.08725490e+00
2.52465692e+00
1.90034714e+00
2.21482997e+00
2.31074413e+00
1.89755494e+00
2.21482997e+00
1.89755494e+00
2.22215815e+00
1.94973584e+00
1.99348879e+00
2.15527522e+00
2.01603200e+00
2.16342063e+00
2.26499121e+00
2.18409045e+00
2.32015120e+00
4.53895802e+00
2.19172942e+00
4.19938116e+00
2.00542124e+00
1.89808144e+00
2.09070707e+00
2.16287303e+00
2.35866307e+00
1.92252159e+00
1.92252159e+00
1.94988679e+00
2.72749940e+00
1.99226189e+00
2.01603200e+00
2.32771851e+00
2.37447063e+00
2.03656261e+00
2.15391148e+00
2.03711666e+00
1.92786422e+00
1.91788195e+00
1.97000497e+00
2.05926201e+00
1.89808144e+00
1.91788195e+00
2.01523181e+00
1.89200508e+00
1.89200508e+00
2.59044303e+00
2.23122172e+00
2.25909881e+00
2.00022293e+00
2.14127453e+00
2.14127453e+00
1.97930521e+00
2.20056810e+00
2.26682434e+00
2.24269669e+00
2.24269669e+00
1.97930521e+00
2.19574635e+00
2.09201681e+00
1.96441977e+00
1.96441977e+00
2.04777375e+00
2.10196817e+00
2.04319366e+00
2.37447063e+00
1.90930031e+00
1.93881315e+00
1.95776237e+00
2.01028786e+00
2.01451124e+00
1.93881315e+00
2.09325762e+00
1.93815874e+00
1.95907727e+00
1.97215806e+00
2.05967207e+00
2.12625802e+00
2.05868420e+00
2.05320937e+00
1.97287252e+00
1.97287252e+00
2.32171372e+00
2.54939054e+00
3.07115748e+00
1.96794343e+00
2.02783885e+00
1.96581177e+00
2.03061028e+00
2.28234507e+00
2.18198475e+00
2.30543832e+00
2.21666053e+00
2.21985377e+00
2.21985377e+00
1.97448230e+00
2.10371149e+00
2.15068279e+00
1.97448230e+00
1.96073280e+00
1.96073280e+00
1.89636883e+00
1.89636883e+00
1.98486423e+00
1.93363545e+00
1.93363545e+00
2.01639523e+00
2.33643790e+00
2.10555122e+00
2.12477120e+00
2.26292446e+00
2.10555122e+00
2.43592421e+00
2.48317848e+00
2.10815179e+00
2.04732183e+00
2.24606460e+00
2.54454951e+00
2.87541304e+00
2.28220074e+00
1.91799406e+00
1.95175534e+00
1.95175534e+00
1.95338057e+00
1.91799406e+00
2.28220074e+00
2.23729517e+00
2.17923011e+00
2.12518089e+00
2.23524414e+00
1.94588584e+00
1.94588584e+00
2.16227137e+00
1.95108951e+00
2.09027060e+00
2.04588497e+00
1.95108951e+00
2.03471099e+00
1.96205806e+00
1.96205806e+00
2.02190789e+00
2.30016986e+00
1.98114787e+00
2.00369576e+00
2.28418526e+00
1.97907095e+00
2.20708632e+00
2.15209331e+00
2.01932723e+00
2.01932723e+00
2.01328457e+00
2.31936834e+00
2.28503831e+00
2.10517586e+00
2.02720016e+00
2.04793578e+00
2.02022909e+00
1.92325315e+00
1.95418619e+00
2.27082125e+00
2.19588372e+00
1.89505599e+00
1.89505599e+00
2.39331515e+00
2.19588372e+00
2.39957266e+00
2.06171769e+00
2.46495937e+00
1.91938543e+00
2.04208487e+00
2.16781139e+00
2.16781139e+00
1.95165029e+00
1.95165029e+00
1.96076471e+00
1.96241234e+00
2.22455116e+00
2.20747911e+00
1.96241234e+00
2.03928816e+00
1.94387188e+00
1.96292237e+00
2.14126272e+00
1.94729156e+00
1.94729156e+00
2.15122957e+00
2.73410495e+00
2.07746814e+00
2.07746814e+00
2.27722031e+00
2.02268678e+00
1.97884004e+00
2.16085087e+00
2.09762285e+00
1.99896018e+00
1.91892381e+00
1.98693278e+00
1.89412834e+00
1.89412834e+00
1.99667808e+00
2.14026952e+00
1.99545385e+00
2.03539743e+00
1.96798181e+00
1.96798181e+00
2.08458112e+00
1.93025374e+00
1.93025374e+00
1.91561141e+00
1.91561141e+00
1.88994583e+00
1.90980963e+00
1.90980963e+00
1.89578815e+00
2.13073826e+00
2.07647824e+00
2.07647824e+00
2.15839001e+00
1.92988507e+00
2.32474288e+00
2.30933909e+00
1.91243252e+00
2.11860814e+00
2.27696899e+00