# vtk DataFile Version 2.0
z-phase-transition mesh
ASCII
DATASET UNSTRUCTURED_GRID

POINTS 7600 float
3.41074982e-01 9.63010218e-01 0.0
7.73589061e-01 5.59496515e-01 0.0
1.97804168e-01 1.58795315e-01 0.0
1.13992812e-01 8.55404598e-01 0.0
6.21503242e-01 7.05901035e-01 0.0
1.54392479e-02 9.83756953e-01 0.0
8.61150070e-01 1.45514786e-01 0.0
2.58492931e-01 8.39533126e-02 0.0
2.67619810e-01 5.19715103e-01 0.0
4.53997022e-01 3.75519811e-01 0.0
5.12475045e-01 1.12343357e-01 0.0
1.78405690e-01 3.68052926e-01 0.0
4.70599099e-01 8.70248653e-01 0.0
2.06125097e-01 5.70066891e-01 0.0
6.23637051e-01 2.31741775e-02 0.0
5.32196345e-01 1.85230717e-01 0.0
1.00000000e-03 9.99000000e-01 0.0
9.56965264e-01 8.72313134e-01 0.0
2.78932826e-01 1.12049736e-01 0.0
6.95428600e-01 4.37743621e-01 0.0
9.89004375e-02 5.16164702e-01 0.0
1.00000000e-03 8.44642130e-01 0.0
3.25243970e-01 7.01409828e-01 0.0
3.15234832e-01 6.09116628e-01 0.0
5.32390695e-01 2.55590076e-01 0.0
9.78973992e-01 7.20331127e-01 0.0
9.99000000e-01 9.47808658e-01 0.0
5.91428007e-01 9.60761953e-01 0.0
6.69032200e-02 2.40324156e-01 0.0
1.00000000e-03 2.70793320e-01 0.0
4.41046215e-01 2.57997934e-01 0.0
8.39836471e-01 2.84729824e-01 0.0
3.79754877e-01 6.06363315e-01 0.0
1.30191966e-01 7.80554626e-01 0.0
1.29611902e-01 9.99000000e-01 0.0
8.23250031e-01 3.14859505e-01 0.0
1.00000000e-03 7.71642199e-01 0.0
6.43275063e-01 7.52631677e-01 0.0
7.80661286e-01 6.59185983e-02 0.0
4.01743321e-01 1.81771620e-01 0.0
7.81513939e-01 5.91373213e-01 0.0
3.74757724e-01 3.85445865e-02 0.0
2.68295798e-01 3.79652742e-01 0.0
6.60646199e-01 6.21429564e-01 0.0
9.04787992e-01 4.41528141e-01 0.0
1.61475902e-01 6.82822342e-01 0.0
8.36115306e-01 5.54552528e-01 0.0
8.06865414e-01 5.33691520e-01 0.0
4.89173199e-01 3.17724513e-01 0.0
4.47116496e-02 1.11757269e-01 0.0
6.11536910e-02 6.24296158e-01 0.0
2.91337537e-01 6.15979959e-01 0.0
8.28827815e-01 2.88542487e-01 0.0
3.79654322e-01 7.37594345e-01 0.0
2.11840117e-01 3.40137925e-02 0.0
3.20299423e-01 2.35590228e-01 0.0
9.54833078e-01 8.13649050e-01 0.0
5.80650819e-01 8.99099410e-01 0.0
9.18989502e-01 1.66211244e-01 0.0
8.72452121e-01 5.09336276e-01 0.0
7.81267225e-01 7.49277968e-01 0.0
3.39663987e-01 6.48334229e-02 0.0
1.41821393e-01 4.67386936e-01 0.0
7.60150539e-01 8.42619215e-01 0.0
8.53746449e-02 4.35385156e-01 0.0
3.35450602e-01 2.36509787e-01 0.0
1.81337737e-01 2.53422409e-01 0.0
9.64712166e-01 3.54273668e-01 0.0
4.08670686e-01 7.45721272e-01 0.0
4.10508796e-01 9.55108391e-01 0.0
9.99000000e-01 3.12557751e-01 0.0
5.02763054e-01 2.76735880e-01 0.0
2.32815533e-01 3.48781232e-02 0.0
6.40033944e-01 4.85342669e-01 0.0
1.00000000e-03 3.46494839e-01 0.0
9.18438657e-01 2.19260304e-01 0.0
1.90734052e-01 5.70987496e-01 0.0
8.35809621e-01 2.65278855e-01 0.0
5.95841096e-01 7.88311084e-01 0.0
2.44478844e-01 7.62213779e-01 0.0
3.41084332e-01 5.32128558e-01 0.0
6.09444887e-01 5.57532112e-01 0.0
1.44590996e-01 7.72635215e-01 0.0
3.75705278e-01 1.51871548e-01 0.0
6.01582630e-02 5.63624797e-01 0.0
6.87306496e-01 6.42837268e-02 0.0
4.46474709e-01 1.90135718e-01 0.0
6.55064233e-01 3.02798497e-01 0.0
6.44776015e-01 4.95837777e-01 0.0
9.99000000e-01 1.32316931e-01 0.0
3.25121728e-01 7.64632075e-02 0.0
9.21046278e-01 8.02110708e-01 0.0
2.53864512e-01 7.40034320e-01 0.0
7.84542548e-01 5.42327340e-01 0.0
4.38676863e-01 2.61856411e-01 0.0
1.07246739e-01 9.00622437e-01 0.0
8.88822564e-01 6.17445328e-01 0.0
3.65870449e-01 3.47668518e-01 0.0
7.42799768e-01 9.08607127e-01 0.0
9.47165152e-01 8.16079886e-01 0.0
6.52345526e-01 1.65342250e-01 0.0
1.84103865e-01 9.68341079e-01 0.0
6.38887181e-01 1.00000000e-03 0.0
1.71251593e-01 6.70730734e-01 0.0
2.28314278e-03 1.75854019e-01 0.0
5.30284754e-01 7.04036264e-01 0.0
6.20308868e-01 2.92414935e-01 0.0
7.06104748e-01 2.16789241e-01 0.0
2.75936447e-01 7.60865017e-01 0.0
6.59639026e-01 8.69995611e-01 0.0
6.02677440e-01 4.82680517e-01 0.0
1.27130186e-01 4.47111590e-01 0.0
2.10314953e-01 3.28989902e-01 0.0
9.88193571e-01 3.92720014e-01 0.0
8.70786417e-01 5.57097269e-01 0.0
8.47633122e-01 4.61159159e-01 0.0
5.35201326e-01 5.45564002e-01 0.0
9.45446602e-02 6.40973039e-01 0.0
2.79802578e-01 4.00002528e-02 0.0
6.71394971e-01 1.60971077e-01 0.0
9.99000000e-01 9.41741322e-01 0.0
9.02522391e-01 3.27537388e-01 0.0
2.20829144e-02 9.61205505e-01 0.0
4.92549184e-01 8.87010765e-01 0.0
9.50464620e-01 8.76898304e-01 0.0
3.25843598e-01 3.85447938e-01 0.0
8.80144461e-01 2.73660174e-01 0.0
2.52806528e-01 6.09885101e-01 0.0
8.64230627e-01 6.38535357e-01 0.0
5.14073812e-01 1.33433022e-01 0.0
5.46302460e-01 9.72351306e-01 0.0
1.64400730e-01 5.14791226e-01 0.0
8.91217878e-01 6.83771542e-01 0.0
7.28827407e-01 6.69690693e-01 0.0
3.42131116e-01 3.06305279e-01 0.0
8.14873580e-01 8.11395800e-01 0.0
8.26930242e-01 8.97221227e-01 0.0
5.11459173e-01 4.27979385e-01 0.0
7.73559807e-01 6.70696304e-01 0.0
6.33652028e-01 8.57644428e-01 0.0
9.57901813e-01 2.71406903e-01 0.0
4.48185835e-01 8.63034731e-02 0.0
6.00661493e-01 9.38233221e-03 0.0
5.14960677e-01 5.64361761e-01 0.0
2.43001904e-01 5.28520502e-01 0.0
1.00000000e-03 4.73989529e-02 0.0
8.53215229e-01 3.95003032e-01 0.0
1.20751111e-01 4.60369318e-01 0.0
7.33517507e-01 2.77446413e-01 0.0
5.96973474e-01 9.30171636e-02 0.0
1.00000000e-03 5.49354444e-01 0.0
5.16159033e-01 6.93406081e-01 0.0
7.67459710e-01 9.49342680e-01 0.0
5.09526600e-01 2.93483838e-01 0.0
7.19277642e-01 2.24977882e-01 0.0
4.49571702e-01 9.58506328e-02 0.0
3.32947992e-02 9.46512312e-01 0.0
8.85878725e-01 6.99372305e-01 0.0
4.46561604e-01 7.84362428e-02 0.0
1.00000000e-03 2.65419335e-01 0.0
4.73032942e-01 7.03234415e-01 0.0
6.44041809e-01 3.64825023e-01 0.0
9.76256326e-01 7.46766738e-01 0.0
5.99114727e-01 6.31427287e-01 0.0
3.95124378e-01 3.05031458e-01 0.0
2.96625379e-01 7.75132747e-01 0.0
1.00000000e-03 1.26979165e-01 0.0
5.63233563e-02 1.30382384e-01 0.0
7.71768795e-01 6.71523571e-01 0.0
5.18169301e-01 1.15766282e-01 0.0
5.01258242e-01 4.22339475e-01 0.0
1.41606043e-01 5.00434044e-01 0.0
3.95750122e-01 6.35923612e-01 0.0
6.28933601e-01 1.00000000e-03 0.0
4.24550997e-01 6.52771814e-01 0.0
6.26437275e-01 8.02178505e-01 0.0
7.02683247e-01 9.27955822e-02 0.0
7.89833387e-02 6.94640970e-01 0.0
1.00000000e-03 5.74816187e-01 0.0
9.10110870e-01 5.37934854e-01 0.0
4.08770357e-01 7.03220331e-01 0.0
4.51125402e-01 5.56605808e-01 0.0
9.47577821e-01 3.86199086e-01 0.0
9.02934618e-01 9.64628124e-01 0.0
2.11577614e-01 9.04788023e-02 0.0
5.76474200e-02 1.00000000e-03 0.0
8.50236431e-02 6.00964740e-01 0.0
1.00000000e-03 2.86848788e-01 0.0
8.72818715e-01 1.00000000e-03 0.0
7.59984743e-01 2.38286955e-01 0.0
9.38139919e-02 6.77813470e-01 0.0
7.44750763e-01 9.33871093e-01 0.0
7.89873989e-01 8.65974357e-01 0.0
2.28619556e-01 1.12069839e-01 0.0
6.91421461e-01 8.78201557e-01 0.0
9.61242379e-01 3.45697559e-01 0.0
3.48969239e-01 7.63652797e-01 0.0
3.55157765e-01 9.44177703e-01 0.0
8.14123251e-01 4.65661610e-01 0.0
7.16688229e-01 7.46185517e-01 0.0
1.39851223e-01 8.68229534e-01 0.0
4.74804555e-01 8.58098734e-01 0.0
2.74179683e-01 8.74945292e-01 0.0
4.18921700e-01 1.20686559e-01 0.0
9.37757843e-01 1.16562541e-01 0.0
3.47699884e-01 8.92669818e-01 0.0
9.56789038e-01 5.71846034e-01 0.0
6.49034934e-01 4.54676148e-01 0.0
3.13516379e-01 3.12007880e-01 0.0
6.75652748e-01 6.86712623e-01 0.0
7.74471019e-01 8.63997242e-01 0.0
1.08255359e-01 4.93301488e-01 0.0
1.58959780e-01 4.76754049e-01 0.0
3.82198955e-01 9.79296690e-01 0.0
3.53372915e-01 1.04094143e-01 0.0
7.88605447e-02 7.85452566e-01 0.0
6.47334728e-01 4.25912260e-02 0.0
7.66051380e-02 6.83026391e-01 0.0
8.64521711e-02 7.62004712e-01 0.0
7.73193965e-01 1.30325272e-01 0.0
6.54157848e-02 9.75065923e-01 0.0
3.66975202e-01 3.29019705e-01 0.0
7.89085816e-01 9.32795039e-01 0.0
9.99000000e-01 8.04001509e-01 0.0
4.26243119e-01 1.03283626e-01 0.0
7.17394420e-01 5.56185385e-01 0.0
4.76121863e-01 8.39064816e-01 0.0
1.45239122e-01 6.16833772e-01 0.0
6.81375537e-02 5.44280196e-01 0.0
6.79796115e-02 1.70581052e-01 0.0
7.91368396e-02 6.91771566e-01 0.0
7.81040296e-01 5.98872656e-01 0.0
9.99000000e-01 3.46057404e-01 0.0
2.75708611e-01 8.73704254e-01 0.0
1.68534227e-01 9.75358423e-01 0.0
1.00000000e-03 9.99000000e-01 0.0
4.56539885e-02 8.63286765e-01 0.0
4.83080416e-01 9.80419961e-01 0.0
1.10603368e-01 5.83146310e-01 0.0
9.31571725e-01 4.77853272e-01 0.0
6.64528316e-01 6.57118941e-01 0.0
4.57744924e-01 6.34176240e-01 0.0
6.01002794e-01 9.47056660e-01 0.0
1.00000000e-03 1.78758070e-01 0.0
9.20065497e-01 9.86606053e-01 0.0
5.63798728e-01 7.18060424e-01 0.0
2.67060911e-01 9.28170780e-02 0.0
3.38397187e-01 3.20514650e-01 0.0
5.73063516e-01 1.47289578e-01 0.0
9.99000000e-01 9.98371930e-01 0.0
6.50574530e-01 4.84715726e-01 0.0
3.23117875e-01 8.51071963e-01 0.0
7.05688228e-01 1.07288633e-01 0.0
9.45723636e-01 8.45314141e-01 0.0
8.92542736e-01 6.83775534e-01 0.0
6.50234634e-01 4.05702025e-01 0.0
9.99000000e-01 8.92863318e-01 0.0
1.91945715e-02 2.58211986e-02 0.0
3.79852989e-01 7.71600420e-01 0.0
9.38472670e-01 1.87925872e-01 0.0
6.39334303e-01 4.13179927e-01 0.0
9.99000000e-01 8.13145934e-01 0.0
9.27865480e-01 4.20513634e-01 0.0
3.60663029e-01 1.79287861e-01 0.0
3.25352220e-02 8.37784276e-01 0.0
8.41027122e-01 9.99000000e-01 0.0
9.32838919e-01 5.34429463e-01 0.0
7.49122342e-01 8.49789620e-01 0.0
7.97188249e-01 2.06126474e-01 0.0
5.27211640e-01 1.39397831e-01 0.0
9.89462537e-01 5.26030495e-01 0.0
2.92507096e-01 7.41281116e-01 0.0
5.11260601e-01 3.20443738e-01 0.0
1.40070180e-01 7.06033849e-01 0.0
4.84023110e-01 7.55980869e-01 0.0
4.88216713e-01 8.58086445e-01 0.0
6.15929641e-01 5.19704122e-01 0.0
9.30175555e-01 3.61680549e-01 0.0
8.86857579e-02 7.25595397e-02 0.0
8.04440637e-01 6.65841315e-01 0.0
6.33713457e-01 1.88046001e-01 0.0
1.80383320e-01 1.67662433e-02 0.0
2.93168534e-01 6.14427647e-01 0.0
3.54017530e-01 5.33442654e-01 0.0
9.86773840e-01 3.80561434e-01 0.0
5.86773506e-01 7.87117929e-01 0.0
4.37476905e-01 7.01112335e-01 0.0
8.75492505e-01 9.35873705e-01 0.0
5.59135822e-02 9.22141804e-01 0.0
5.36151379e-01 3.08815042e-01 0.0
4.86108228e-01 9.51084942e-01 0.0
[...]
CELL_DATA 14540
SCALARS z float 1
LOOKUP_TABLE default
2.31955900e+00
2.69818529e+00
1.91369032e+00
2.03909565e+00
2.18359396e+00
1.89559282e+00
1.89282733e+00
1.89282733e+00
2.25807948e+00
1.89559282e+00
3.53438876e+00
1.99542126e+00
2.67251507e+00
2.13785612e+00
2.11855412e+00
2.59654731e+00
2.04846017e+00
2.04846017e+00
1.98563557e+00
1.92720311e+00
1.95820437e+00
1.95820437e+00
2.05285866e+00
2.36612759e+00
2.75815679e+00
1.98675930e+00
1.99542126e+00
2.26216276e+00
2.02613012e+00
1.98675930e+00
2.10992084e+00
2.43383670e+00
2.16881719e+00
2.06022051e+00
1.97997364e+00
1.98347396e+00
2.03961088e+00
1.95506721e+00
2.49733703e+00
2.41973887e+00
2.60499837e+00
1.95503170e+00
2.65890539e+00
1.90524063e+00
1.95533426e+00
1.95533426e+00
2.02037037e+00
2.07189118e+00
2.14280855e+00
2.18127637e+00
1.97084223e+00
2.10448416e+00
2.28115676e+00
1.99647216e+00
1.99647216e+00
2.26008220e+00
1.91142785e+00
2.08997812e+00
1.93182059e+00
1.96842719e+00
1.96842719e+00
2.19140058e+00
1.96879145e+00
2.12911763e+00
2.08285983e+00
1.91347964e+00
2.08285983e+00
1.91961436e+00
2.13059704e+00
2.20658056e+00
2.02798121e+00
2.16215460e+00
2.32652469e+00
2.03825443e+00
2.22620101e+00
2.07331192e+00
1.97199874e+00
2.10992084e+00
2.01602848e+00
2.01602848e+00
1.91232929e+00
1.89519890e+00
1.91232929e+00
1.89519890e+00
1.93553554e+00
1.93553554e+00
2.00944905e+00
1.95577611e+00
1.90657487e+00
2.06637219e+00
1.98822208e+00
2.04276052e+00
1.90657487e+00
1.94006715e+00
1.95506721e+00
2.37849995e+00
2.10333662e+00
2.02994361e+00
2.26882910e+00
2.28051371e+00
2.02994361e+00
2.04566409e+00
2.09990588e+00
1.90206248e+00
1.90206248e+00
1.91585697e+00
2.85950328e+00
2.07611747e+00
2.18359275e+00
2.18359275e+00
1.99357011e+00
2.08675566e+00
1.90169551e+00
2.08267181e+00
2.80218712e+00
1.92278248e+00
1.94672503e+00
2.13578191e+00
2.04812724e+00
2.44872159e+00
1.93987391e+00
2.17233210e+00
2.36439410e+00
1.91638898e+00
1.91638898e+00
2.11757744e+00
1.90506831e+00
1.90435319e+00
2.24063232e+00
2.02633602e+00
2.03046688e+00
2.02799079e+00
1.90314196e+00
1.90314196e+00
2.06349339e+00
1.93987391e+00
2.21608566e+00
2.08440085e+00
3.21190655e+00
1.90743859e+00
1.89260231e+00
1.93919584e+00
1.95178484e+00
2.20980964e+00
3.03604518e+00
2.00888745e+00
2.00888745e+00
1.90338187e+00
3.35037551e+00
2.24696201e+00
1.97084223e+00
2.05285866e+00
1.93351811e+00
1.93351811e+00
1.98300513e+00
1.91761229e+00
1.91761229e+00
1.98422839e+00
2.10312760e+00
2.24745017e+00
1.92115504e+00
2.03081000e+00
2.03081000e+00
2.13772732e+00
1.95912578e+00
1.94635001e+00
2.20673233e+00
2.38410481e+00
2.08997812e+00
1.94635001e+00
2.07650844e+00
1.97548655e+00
1.96959458e+00
2.02086501e+00
1.93182059e+00
1.91857237e+00
2.20426867e+00
2.17875831e+00
1.99258057e+00
2.11569956e+00
2.11569956e+00
2.26116692e+00
1.95135938e+00
1.89002657e+00
1.95135938e+00
2.04549648e+00
1.91247031e+00
2.34292433e+00
2.09475807e+00
2.13171136e+00
2.12746570e+00
2.13305120e+00
1.89002657e+00
2.05242332e+00
2.06891495e+00
1.95793157e+00
2.08881244e+00
1.90382197e+00
1.94712128e+00
1.96993851e+00
2.54320686e+00
1.93490100e+00
2.26670377e+00
1.93490100e+00
2.44718646e+00
1.91347964e+00
2.06029542e+00
2.14370349e+00
1.92867358e+00
1.95475453e+00
2.06635158e+00
2.17613075e+00
1.94744715e+00
1.90541983e+00
2.00615118e+00
2.06615934e+00
2.14462681e+00
2.28519998e+00
2.25227001e+00
1.89744388e+00
2.17835238e+00
2.10766738e+00
2.13374509e+00
1.89467626e+00
2.23444977e+00
1.93396281e+00
1.93789365e+00
1.94746205e+00
1.89692313e+00
1.91464780e+00
1.93597638e+00
2.12012707e+00
2.04623795e+00
2.00431305e+00
1.92550757e+00
2.70116912e+00
1.96095298e+00
2.22824875e+00
2.20217167e+00
1.94632581e+00
1.93695690e+00
2.50667204e+00
2.20600178e+00
1.91702547e+00
1.93912796e+00
1.95427032e+00
1.89244025e+00
2.09941678e+00
1.89244025e+00
2.17233242e+00
1.92550757e+00
2.13787088e+00
1.90667004e+00
2.10137084e+00
2.04407063e+00
2.18211726e+00
2.23419933e+00
1.94137932e+00
1.93504194e+00
1.97716884e+00
1.92094056e+00
1.92094056e+00
2.11715617e+00
1.96151794e+00
1.98806300e+00
2.06691399e+00
2.16238467e+00
2.01038905e+00
1.92459003e+00
1.94586595e+00
1.92678172e+00
1.92678172e+00
1.90507112e+00
2.07449498e+00
1.90859479e+00
1.98256761e+00
1.90859479e+00
2.07331192e+00
2.30560647e+00
1.94159759e+00
1.99193100e+00
1.92838112e+00
1.98769107e+00
1.93262721e+00
2.05808107e+00
2.13237191e+00
2.04315238e+00
2.04315238e+00
1.96969486e+00
1.96969486e+00
2.24753601e+00
1.99889172e+00
2.28532417e+00
2.28047662e+00
2.14058739e+00
1.91987510e+00
1.91987510e+00
1.89776507e+00
1.89478716e+00
2.12867209e+00
2.06022051e+00
2.14758891e+00
2.14758891e+00
2.52833216e+00
2.47617504e+00
2.80603905e+00
2.37801740e+00
2.14751170e+00
2.10891828e+00
2.14751170e+00
1.99616518e+00
2.13785612e+00
1.97831869e+00
2.49274398e+00
2.06034072e+00
2.08132891e+00
1.93722667e+00
2.32996891e+00
2.19404137e+00
2.43503425e+00
1.90014211e+00
1.96545181e+00
2.16248991e+00
1.95933061e+00
2.00317493e+00
2.00317493e+00
2.00433166e+00
2.02864857e+00
2.00956106e+00
2.17746818e+00
2.00958539e+00
1.97162059e+00
2.39952486e+00
2.00433166e+00
1.90048942e+00
1.90048942e+00
2.02864857e+00
2.01333058e+00
2.01333058e+00
1.89664905e+00
2.04276052e+00
2.04817923e+00
2.12296221e+00
2.13131810e+00
1.92629251e+00
2.08132891e+00
1.97897197e+00
1.97897197e+00
1.95094736e+00
1.90196159e+00
2.15587707e+00
2.00950073e+00
2.15587707e+00
2.37076255e+00
1.91499483e+00
2.12102670e+00
1.91499483e+00
2.04998063e+00
2.29774175e+00
2.15804704e+00
1.94585732e+00
1.94585732e+00
1.96910733e+00
1.93824000e+00
2.02645814e+00
1.96700151e+00
2.15655703e+00
3.03352818e+00
1.90633155e+00
2.35703209e+00
2.14266679e+00
2.09859972e+00
2.24727449e+00
2.07035675e+00
2.08754564e+00
1.97903351e+00
2.75773234e+00
2.37736056e+00
1.89930208e+00
1.98158742e+00
1.93771532e+00
2.57617268e+00
1.91888940e+00
2.02116153e+00
2.22186287e+00
2.00428432e+00
1.99666823e+00
2.42919045e+00
1.99666823e+00
2.27159919e+00
2.09325521e+00
2.77472031e+00
1.91574155e+00
2.16138626e+00
2.34326774e+00
2.41947657e+00
1.95589819e+00
1.89144343e+00
2.21523252e+00
1.96003599e+00
2.23864254e+00
3.18688554e+00
2.05030704e+00
2.11858227e+00
2.00172210e+00
2.87161697e+00
2.00172210e+00
2.03211438e+00
2.97779521e+00
2.97779521e+00
2.04058233e+00
2.04058233e+00
1.92529009e+00
2.17499582e+00
2.09055808e+00
2.09055808e+00
2.01373327e+00
1.96980283e+00
2.02298347e+00
2.12884020e+00
2.05556097e+00
2.07449498e+00
2.35947131e+00
1.92535712e+00
2.49699958e+00
2.11583772e+00
1.95910373e+00
2.59400288e+00
2.54304350e+00
1.91262136e+00
2.35947131e+00
1.98231794e+00
2.00252793e+00
2.14210551e+00
2.02347386e+00
2.61241876e+00
2.06580096e+00
1.91033224e+00
1.93210075e+00
1.99056424e+00
1.90281154e+00
2.76813929e+00
1.91207474e+00
2.08660704e+00
1.96809053e+00
2.03025736e+00
2.05180376e+00
1.95503170e+00
2.17583464e+00
1.95220043e+00
2.02999366e+00
2.17233210e+00
2.10305461e+00
2.64975813e+00
2.21039165e+00
1.94025511e+00
1.95214785e+00
1.94025511e+00
2.21039165e+00
2.05205784e+00
2.15305088e+00
2.04625366e+00
1.89028594e+00
2.09942281e+00
2.07362748e+00
2.60027519e+00
2.17296439e+00
2.25324533e+00
1.90506831e+00
2.41826956e+00
2.22182532e+00
2.05201448e+00
2.51212646e+00
2.07695214e+00
2.05282433e+00
1.96642121e+00
2.56151818e+00
1.91843500e+00
1.98283805e+00
1.96121992e+00
2.12479504e+00
2.12479504e+00
2.40732127e+00
2.05717441e+00
1.92918501e+00
2.16813708e+00
2.16813708e+00
2.10664257e+00
1.90166080e+00
1.94363433e+00
2.00272585e+00
2.07025213e+00
2.00272585e+00
2.05422050e+00
2.43870682e+00
1.95472035e+00
1.99790024e+00
1.99258057e+00
2.04642001e+00
2.40535907e+00
1.90694293e+00
2.20642281e+00
1.91369032e+00
1.96675715e+00
2.03909565e+00
2.02681694e+00
1.90524063e+00
2.06018557e+00
1.99027466e+00
1.94041920e+00
2.11672636e+00
1.90387691e+00
1.90694293e+00
1.92346228e+00
1.92680385e+00
1.95135506e+00
2.04743037e+00
2.36327449e+00
1.95220043e+00
2.17321720e+00
9.28432690e+00
1.90743859e+00
1.92301446e+00
1.93701953e+00
2.12774002e+00
1.91587876e+00
2.21022166e+00
2.10966498e+00
1.90182967e+00
2.07074427e+00
2.10966498e+00
1.93234485e+00
1.93610796e+00
1.93234485e+00
1.95032760e+00
2.06172366e+00
2.04812724e+00
1.93919584e+00
2.00313062e+00
2.02808521e+00
2.02808521e+00
2.06172366e+00
1.98697849e+00
2.04735369e+00
1.89158805e+00
1.89158805e+00
2.32529122e+00
2.10430386e+00
2.98430089e+00
1.92966843e+00
2.68237771e+00
2.16934842e+00
1.95178484e+00
1.99833332e+00
2.23703529e+00
2.00078499e+00
2.61396064e+00
1.94201639e+00
2.04340105e+00
2.22751343e+00
2.01790850e+00
2.01790850e+00
2.41438542e+00
1.90338187e+00
2.24334549e+00
2.01949917e+00
1.95126735e+00
1.92269031e+00
1.90516738e+00
1.90516738e+00
1.95317207e+00
1.98267859e+00
1.95317207e+00
2.37585769e+00
2.54649576e+00
1.92115504e+00
1.93776577e+00
1.96448003e+00
3.27192068e+00
2.29490811e+00
1.92826819e+00
1.98267859e+00
2.01036390e+00
3.18066515e+00
2.34086584e+00
2.28182531e+00
2.08824547e+00
2.60944910e+00
1.93637574e+00
1.89947113e+00
2.21903998e+00
1.93704864e+00
1.89947113e+00
1.93704864e+00
2.01024587e+00
1.91268122e+00
2.22252090e+00
1.94159816e+00
2.13711146e+00
2.23376873e+00
2.07892377e+00
2.34849929e+00
2.38459508e+00
2.21930792e+00
2.20775599e+00
1.92868278e+00
1.93217622e+00
1.91587362e+00
1.91488329e+00
2.12575870e+00
1.91488329e+00
2.73615052e+00
1.94373443e+00
2.21844988e+00
2.36788211e+00
2.02086501e+00
2.06341396e+00
2.14491298e+00
2.24386645e+00
1.98311262e+00
1.91247031e+00
2.35504379e+00
2.35504379e+00
1.95015269e+00
1.95015269e+00
2.01566704e+00
2.14491298e+00
1.99384013e+00
1.99384013e+00
2.23835966e+00
2.20281107e+00
2.31332635e+00
2.03048335e+00
2.63558625e+00
2.60275425e+00
1.91737597e+00
1.93024607e+00
2.09831253e+00
2.33440999e+00
1.99252094e+00
1.90748082e+00
1.90748082e+00
1.98338033e+00
2.05711529e+00
2.16886077e+00
1.92800890e+00
2.22392952e+00
2.03832585e+00
1.92800890e+00
2.00358922e+00
2.05913207e+00
1.96658420e+00
1.96013641e+00
2.16063581e+00
1.96456408e+00
1.94001291e+00
1.94001291e+00
2.54785534e+00
1.90860978e+00
1.90864831e+00
2.13393829e+00
1.91961048e+00
1.98350473e+00
2.63134260e+00
1.93274610e+00
2.61167471e+00
1.98333276e+00
1.98333276e+00
2.10462515e+00
2.10462515e+00
1.88923511e+00
1.88923511e+00
1.95744899e+00
2.56852393e+00
1.95744899e+00
2.08289553e+00
2.26459665e+00
1.97555310e+00
2.02955440e+00
1.91905619e+00
1.97706411e+00
1.94712128e+00
2.07339384e+00
2.01752417e+00
1.94599665e+00
2.03778646e+00
1.94599665e+00
2.12497065e+00
2.72110884e+00
1.93936439e+00
2.07082255e+00
1.94587820e+00
2.73231864e+00
3.03326522e+00
2.50314245e+00
2.13045575e+00
2.24993462e+00
2.10793889e+00
2.35879380e+00
3.40694931e+00
1.95681798e+00
2.09011257e+00
1.98351304e+00
2.14370349e+00
1.91018921e+00
1.95357325e+00
1.99399561e+00
1.95357325e+00
1.99672733e+00
2.27624792e+00
2.22391767e+00
2.22253475e+00
2.06029542e+00
2.05961446e+00
2.42371657e+00
2.26412397e+00
2.00328900e+00
1.98015147e+00
1.97249046e+00
2.07011494e+00
2.32326984e+00
2.01475231e+00
1.95364696e+00
1.95364696e+00
1.94201639e+00
2.14600363e+00
2.11398003e+00
1.94985058e+00
2.11398003e+00
1.94675383e+00
1.94675383e+00
1.90541983e+00
2.10498429e+00
2.14722444e+00
1.94744715e+00
2.14722444e+00
2.01041484e+00
1.94985058e+00
1.98367746e+00
1.98602479e+00
2.42079330e+00
2.95413464e+00
1.98235836e+00
2.20623871e+00
1.98807700e+00
2.19595871e+00
2.08606537e+00
1.99246385e+00
1.99246385e+00
2.08348327e+00
1.89338511e+00
1.99152381e+00
1.99152381e+00
1.89338511e+00
2.04869483e+00
1.95325332e+00
1.95301042e+00
2.52417215e+00
1.95325332e+00
1.97353017e+00
2.21884636e+00
2.07601074e+00
1.93396281e+00
2.14359617e+00
2.00902411e+00
2.16197541e+00
2.13059704e+00
2.01466842e+00
1.90501226e+00
2.10685080e+00
1.93597638e+00
2.23475222e+00
1.91475897e+00
1.94473890e+00
2.17707988e+00
2.76266040e+00
2.11038377e+00
1.99195157e+00
2.80165979e+00
2.28347098e+00
1.93043965e+00
1.93043965e+00
1.93754494e+00
2.03309147e+00
2.14932286e+00
2.69497971e+00
2.75237188e+00
2.00431305e+00
1.92447017e+00
1.94790103e+00
1.94790103e+00
2.00393696e+00
2.19291086e+00
2.12471109e+00
2.07435133e+00
2.16785902e+00
2.46784498e+00
2.51946802e+00
2.15058727e+00
2.15228477e+00
2.90442787e+00
2.20217167e+00
3.10316048e+00
2.15361066e+00
2.73900582e+00
2.69985275e+00
2.46687979e+00
1.93695690e+00
2.09461586e+00
1.96615949e+00
2.65910394e+00
2.09461586e+00
1.98696433e+00
1.93127352e+00
2.09090401e+00
1.90640454e+00
1.90640454e+00
2.07960535e+00
1.91702547e+00
1.92180421e+00
1.94936170e+00
1.94896294e+00
2.09941678e+00
2.10137084e+00
2.59867587e+00
2.13787088e+00
1.96211054e+00
2.04792370e+00
2.02565119e+00
2.07376511e+00
1.90667004e+00
2.75951708e+00
2.12155185e+00
1.94137932e+00
2.10070416e+00
2.06421890e+00
1.89692313e+00
1.97392604e+00
2.33096040e+00
2.10070416e+00
2.21894719e+00
2.23290299e+00
2.10255949e+00
1.93674779e+00
1.93674779e+00
1.92858349e+00
1.92858349e+00
2.70704363e+00
3.06711242e+00
1.93690559e+00
2.30636630e+00
2.30636630e+00
1.91208737e+00
1.90533703e+00
2.00540379e+00
1.90533703e+00
2.15664027e+00
1.96151794e+00
2.09989252e+00
2.07299566e+00
2.44995960e+00
2.01170847e+00
2.01170847e+00
2.01887603e+00
2.01887603e+00
2.29391390e+00
2.29391390e+00
2.20399112e+00
2.01465602e+00
1.92261887e+00
2.02332650e+00
1.90728080e+00
1.96858335e+00
2.05756044e+00
2.11348485e+00
2.04232936e+00
1.92459003e+00
2.03727643e+00
2.04865730e+00
1.99573715e+00
1.92278248e+00
2.24922812e+00
2.24922812e+00
2.20620454e+00
1.96260376e+00
1.89705357e+00
2.79483180e+00
1.94586595e+00
1.89705357e+00
2.12944565e+00
2.30024786e+00
2.03719065e+00
1.98839915e+00
2.01002292e+00
1.96623378e+00
1.96623378e+00
1.98526488e+00
1.97288423e+00
2.02652558e+00
1.94867683e+00
1.94867683e+00
2.18423000e+00
1.99209951e+00
2.04274912e+00
2.00818060e+00
2.00818060e+00
1.95485268e+00
1.95485268e+00
1.93753205e+00
2.02068278e+00
2.19900668e+00
1.90362793e+00
1.90362793e+00
2.16376893e+00
2.29650124e+00
1.97054364e+00
1.97054364e+00
2.01252977e+00
1.98769107e+00
2.08066552e+00
2.16054300e+00
1.98840048e+00
2.07616122e+00
2.06800360e+00
2.06800360e+00
2.61944864e+00
2.22984366e+00
1.98840048e+00
2.16449797e+00
2.33744064e+00
2.41620287e+00
1.91394479e+00
2.08264240e+00
2.41157631e+00
1.98250612e+00
1.98250612e+00
1.98794680e+00
2.20591575e+00
2.05570520e+00
1.98258422e+00
2.15822832e+00
2.17871329e+00
2.17871329e+00
2.41340117e+00
2.40501275e+00
2.13305120e+00
2.25041995e+00
2.10639156e+00
1.95119230e+00
1.95119230e+00
2.22999656e+00
2.04594958e+00
2.89621818e+00
1.90015872e+00
2.29471138e+00
1.95759995e+00
2.17057034e+00
2.34953348e+00
2.19593728e+00
2.51840365e+00
1.94510088e+00
2.77035076e+00
2.49007463e+00
2.16343103e+00
2.01211909e+00
2.48359059e+00
2.14058739e+00
1.99756655e+00
1.94681792e+00
2.01718275e+00
2.01211909e+00
2.26826361e+00
2.26826361e+00
2.04406287e+00
2.04406287e+00
1.94138672e+00
2.48987305e+00
1.96076308e+00
1.96076308e+00
2.21557917e+00
2.21557917e+00
1.99838193e+00
1.89478716e+00
2.09036643e+00
1.97997364e+00
1.89519910e+00
1.89519910e+00
2.91036573e+00
2.28450419e+00
2.33615897e+00
1.91319070e+00
1.97528939e+00
2.44132753e+00
1.95094736e+00
2.26275973e+00
1.97528939e+00
2.40260196e+00
2.08939198e+00
1.94510088e+00
2.79982263e+00
2.48394402e+00
2.15537331e+00
1.89948741e+00
2.03141202e+00
1.99875786e+00
1.98489757e+00
1.98489757e+00
1.90388732e+00
2.04572219e+00
1.96592267e+00
2.04572219e+00
2.47195922e+00
1.98383651e+00
2.39914236e+00
2.19970490e+00
2.16248991e+00
2.07403909e+00
1.94171701e+00
1.90887222e+00
2.33844043e+00
2.28462720e+00
2.00812367e+00
1.92639157e+00
1.92540991e+00
1.92540991e+00
1.90887222e+00
2.08998592e+00
2.08998592e+00
1.93722667e+00
2.59927557e+00
2.04969936e+00
1.94276746e+00
1.94276746e+00
1.95603224e+00
1.90302543e+00
2.10762552e+00
1.89268476e+00
1.95577611e+00
1.89268476e+00
2.94921563e+00
1.97219241e+00
2.45140754e+00
1.92558855e+00
1.89582058e+00
1.97162059e+00
2.39952486e+00
2.13543535e+00
2.10496172e+00
1.93083385e+00
2.04543823e+00
1.94647472e+00
1.89664905e+00
2.08799670e+00
2.00591048e+00
2.20577419e+00
2.00591048e+00
1.94006715e+00
1.96923037e+00
2.10475513e+00
2.41531013e+00
2.06338698e+00
2.08692691e+00
2.03176453e+00
2.03176453e+00
1.92629251e+00
2.16700684e+00
2.00812367e+00
1.94320318e+00
1.93636095e+00
2.06739252e+00
2.12296221e+00
2.01152786e+00
1.90196159e+00
2.47665382e+00
2.11253103e+00
2.05347916e+00
2.24421099e+00
2.22455376e+00
1.89160453e+00
1.89160453e+00
2.06536244e+00
2.23794553e+00
2.23794553e+00
1.96284928e+00
1.96284928e+00
2.72888512e+00
2.31826676e+00
2.31826676e+00
1.99041285e+00
2.19984837e+00
2.04792370e+00
2.09959378e+00
1.89009962e+00
1.89009962e+00
1.95383241e+00
1.90672109e+00
2.14475955e+00
2.11034331e+00
1.94536459e+00
2.14424306e+00
2.08571941e+00
2.01906321e+00
1.92330226e+00
2.02247547e+00
2.00248111e+00
2.16122020e+00
2.05591889e+00
2.17663986e+00
1.98425831e+00
2.19931480e+00
2.03823247e+00
1.98514163e+00
2.18164304e+00
1.96910733e+00
2.34889980e+00
2.51305023e+00
2.50209957e+00
2.07382797e+00
2.07382797e+00
2.67929715e+00
1.92278291e+00
2.54553545e+00
2.34818204e+00
2.09210859e+00
1.98064764e+00
2.07236832e+00
1.92984828e+00
1.92984828e+00
2.42645875e+00
2.74902750e+00
2.41340376e+00
2.14087103e+00
2.03977975e+00
2.03977975e+00
2.07012079e+00
2.02641425e+00
2.19337953e+00
2.02641425e+00
1.97547348e+00
2.26077401e+00
1.97547348e+00
2.26279668e+00
1.96568491e+00
2.15583501e+00
2.04926739e+00
1.91479607e+00
2.20084567e+00
1.96324052e+00
2.00524113e+00
1.91378434e+00
2.02021283e+00
2.02021283e+00
2.05096244e+00
2.49087719e+00
2.02032780e+00
1.97419929e+00
2.01871964e+00
2.33548496e+00
1.98677767e+00
1.91643116e+00
2.29628000e+00
2.31682301e+00
1.89159596e+00
2.24920285e+00
2.03171507e+00
2.61489103e+00
1.91888940e+00
1.98158742e+00
2.26147734e+00
2.38647609e+00
2.38647609e+00
1.91107705e+00
2.11161056e+00
1.91107705e+00
2.12889492e+00
2.08060932e+00
2.08022746e+00
2.08060932e+00
2.41062489e+00
2.25213851e+00
2.06819677e+00
2.02577009e+00
2.29035933e+00
2.32370038e+00
2.27862431e+00
2.06308221e+00
2.06308221e+00
1.92812239e+00
1.92812239e+00
2.18397302e+00
2.18397302e+00
1.99306780e+00
2.26108774e+00
1.99306780e+00
2.10195691e+00
2.38909179e+00
1.93849215e+00
1.91936687e+00
1.91936687e+00
1.93426323e+00
2.45353879e+00
2.09644870e+00
1.96003599e+00
1.96641772e+00
2.60464427e+00
1.91574155e+00
2.98992799e+00
2.09010931e+00
2.10835806e+00
2.10835806e+00
3.90038769e+00
2.01626335e+00
2.01626335e+00
3.23645311e+00
8.28383910e+00
1.96082110e+00
2.12648176e+00
2.07085574e+00
2.19975249e+00
1.91702541e+00
1.91702541e+00
2.13728979e+00
2.03949862e+00
2.23975329e+00
2.03211438e+00
2.00261340e+00
2.43123957e+00
2.67883935e+00
1.92040875e+00
1.99709189e+00
2.12129348e+00
2.12129348e+00
2.16832054e+00
2.16832054e+00
2.31682301e+00
2.28273667e+00
1.89420034e+00
1.92888075e+00
1.91928745e+00
2.46931436e+00
2.09251116e+00
2.10750733e+00
1.92511327e+00
1.92511327e+00
1.93262217e+00
1.93523554e+00
2.04567151e+00
1.91319090e+00
1.91319090e+00
2.04567151e+00
2.28183822e+00
1.95868895e+00
2.42237885e+00
1.95868895e+00
2.28183822e+00
2.16453249e+00
2.25348603e+00
2.12884020e+00
2.14950288e+00
2.27586922e+00
1.99087293e+00
1.99087293e+00
2.25559957e+00
2.18200008e+00
2.46148531e+00
2.05207568e+00
2.11212448e+00
2.22226941e+00
1.96246795e+00
1.91071277e+00
2.09907346e+00
1.96683205e+00
2.31053772e+00
2.00941416e+00
1.96683205e+00
2.30540797e+00
2.30540797e+00
2.13753074e+00
1.91377476e+00
2.59755503e+00
3.04133564e+00
2.34819179e+00
1.99064702e+00
1.96062482e+00
1.96327965e+00
1.96062482e+00
1.90169551e+00
1.96327965e+00
1.96105783e+00
1.91066196e+00
2.00496153e+00
2.13578191e+00
2.16523032e+00
2.20679365e+00
2.30104084e+00
1.98785161e+00
2.54287664e+00
1.92535712e+00
2.58258580e+00
2.09277097e+00
1.91262136e+00
2.07537712e+00
2.60629444e+00
2.07537712e+00
3.16122730e+00
3.23578102e+00
1.98826580e+00
2.05244958e+00
1.98826580e+00
2.63603817e+00
2.03772596e+00
2.03772596e+00
1.99475462e+00
2.09643248e+00
1.93643681e+00
2.53733372e+00
1.93643681e+00
2.82933574e+00
2.13244125e+00
1.91817533e+00
1.90572857e+00
2.04559468e+00
2.00345087e+00
2.12393309e+00
2.12393309e+00
2.17550720e+00
2.04289382e+00
1.91426880e+00
2.04248529e+00