# vtk DataFile Version 2.0
z-phase-transition mesh
ASCII
DATASET UNSTRUCTURED_GRID

POINTS 8640 float
2.00000000e-03 2.00000000e-03 0.0
9.37383082e-03 2.28204437e-03 0.0
1.64558770e-02 2.00000000e-03 0.0
2.75763106e-02 2.00000000e-03 0.0
3.29100046e-02 2.00000000e-03 0.0
4.13224410e-02 2.00000000e-03 0.0
5.07827142e-02 2.00000000e-03 0.0
5.62389845e-02 2.00000000e-03 0.0
6.57093069e-02 2.00000000e-03 0.0
7.42697067e-02 2.00000000e-03 0.0
8.62296804e-02 2.00000000e-03 0.0
9.25381562e-02 2.00000000e-03 0.0
1.00024656e-01 2.00000000e-03 0.0
1.07519097e-01 2.00000000e-03 0.0
1.16747087e-01 2.00000000e-03 0.0
1.25148848e-01 2.77537632e-03 0.0
1.34433558e-01 2.00000000e-03 0.0
1.44089610e-01 2.00000000e-03 0.0
1.51573457e-01 2.00000000e-03 0.0
1.57673767e-01 2.00000000e-03 0.0
1.69173714e-01 2.00000000e-03 0.0
1.76297306e-01 2.00000000e-03 0.0
1.82658594e-01 2.00000000e-03 0.0
1.92587109e-01 2.00000000e-03 0.0
2.02195536e-01 2.00000000e-03 0.0
2.10569628e-01 2.00000000e-03 0.0
2.17473123e-01 2.00000000e-03 0.0
2.28435563e-01 2.00000000e-03 0.0
2.34036669e-01 2.00000000e-03 0.0
2.44193830e-01 2.00000000e-03 0.0
2.51382866e-01 2.00000000e-03 0.0
2.58846516e-01 2.00000000e-03 0.0
2.70125018e-01 2.03213345e-03 0.0
2.77203027e-01 2.00000000e-03 0.0
2.86256146e-01 2.00000000e-03 0.0
2.94659147e-01 2.30452980e-03 0.0
3.02467328e-01 2.34439675e-03 0.0
3.06999053e-01 2.00000000e-03 0.0
3.19458159e-01 2.00000000e-03 0.0
3.27868583e-01 2.00000000e-03 0.0
3.35805307e-01 2.00000000e-03 0.0
3.46752230e-01 2.00000000e-03 0.0
3.51729763e-01 2.00000000e-03 0.0
3.62716138e-01 2.00000000e-03 0.0
3.68954129e-01 2.00000000e-03 0.0
3.78296717e-01 2.00000000e-03 0.0
3.85502695e-01 2.00000000e-03 0.0
3.94370465e-01 2.00000000e-03 0.0
4.03805039e-01 2.00000000e-03 0.0
4.11772368e-01 2.00000000e-03 0.0
4.18047335e-01 2.00000000e-03 0.0
4.28057919e-01 2.00000000e-03 0.0
4.36733126e-01 2.00000000e-03 0.0
4.48204333e-01 2.00000000e-03 0.0
4.54167415e-01 2.00000000e-03 0.0
4.59309867e-01 2.00000000e-03 0.0
4.70678482e-01 3.69081917e-03 0.0
4.78703371e-01 2.00000000e-03 0.0
4.87342947e-01 2.00000000e-03 0.0
4.97510677e-01 2.00000000e-03 0.0
5.05386930e-01 2.00000000e-03 0.0
5.14706930e-01 2.00000000e-03 0.0
5.21887726e-01 3.28208729e-03 0.0
5.27927586e-01 2.00000000e-03 0.0
5.37964439e-01 2.00000000e-03 0.0
5.43895038e-01 2.00000000e-03 0.0
5.53030137e-01 2.00000000e-03 0.0
5.61647583e-01 2.32235702e-03 0.0
5.70254977e-01 2.00000000e-03 0.0
5.81050873e-01 2.00000000e-03 0.0
5.88576111e-01 2.00000000e-03 0.0
5.94230070e-01 2.00000000e-03 0.0
6.05431414e-01 2.00000000e-03 0.0
6.11591983e-01 2.00000000e-03 0.0
6.22630795e-01 2.00000000e-03 0.0
6.30627429e-01 2.00000000e-03 0.0
6.37636542e-01 2.00000000e-03 0.0
6.47497951e-01 2.00000000e-03 0.0
6.58257784e-01 2.00000000e-03 0.0
6.62080547e-01 2.00000000e-03 0.0
6.70808485e-01 2.00000000e-03 0.0
6.82408260e-01 2.00000000e-03 0.0
6.90519113e-01 2.00000000e-03 0.0
6.98710732e-01 2.84207544e-03 0.0
7.05514674e-01 2.00000000e-03 0.0
7.12952903e-01 2.00000000e-03 0.0
7.22573550e-01 2.00000000e-03 0.0
7.31507019e-01 2.00000000e-03 0.0
7.39515280e-01 2.17791480e-03 0.0
7.47502609e-01 4.07578795e-03 0.0
7.57239995e-01 2.00000000e-03 0.0
7.63101302e-01 2.00000000e-03 0.0
7.72774416e-01 2.00000000e-03 0.0
7.82221685e-01 2.00000000e-03 0.0
7.88647166e-01 2.00000000e-03 0.0
7.97650288e-01 2.00000000e-03 0.0
8.07043478e-01 2.00000000e-03 0.0
8.15385537e-01 2.00000000e-03 0.0
8.22205077e-01 2.00000000e-03 0.0
8.32019991e-01 2.00000000e-03 0.0
8.40872228e-01 2.00000000e-03 0.0
8.50362295e-01 2.00000000e-03 0.0
8.55078615e-01 2.00000000e-03 0.0
8.66317926e-01 2.00000000e-03 0.0
8.74721306e-01 5.77277207e-03 0.0
8.83208340e-01 2.00000000e-03 0.0
8.92185739e-01 2.00000000e-03 0.0
8.98687278e-01 2.00000000e-03 0.0
9.06405056e-01 2.00000000e-03 0.0
9.15239138e-01 2.00000000e-03 0.0
9.27837936e-01 2.00000000e-03 0.0
9.33801373e-01 2.00000000e-03 0.0
9.40469348e-01 2.00000000e-03 0.0
9.49676146e-01 2.00000000e-03 0.0
9.56911412e-01 2.00000000e-03 0.0
9.65292204e-01 2.00000000e-03 0.0
9.74858199e-01 2.00000000e-03 0.0
9.86405674e-01 2.00000000e-03 0.0
9.88562250e-01 2.00000000e-03 0.0
9.98000000e-01 2.00000000e-03 0.0
2.00000000e-03 1.39125907e-02 0.0
9.43984570e-03 1.53817185e-02 0.0
1.52880811e-02 1.35833044e-02 0.0
2.47782783e-02 1.31055858e-02 0.0
3.65385608e-02 1.46913147e-02 0.0
4.04073833e-02 1.54597931e-02 0.0
5.38797508e-02 1.56315099e-02 0.0
5.68268014e-02 1.33589509e-02 0.0
6.94050100e-02 1.30241647e-02 0.0
7.65750851e-02 1.52451864e-02 0.0
8.29245720e-02 1.39953167e-02 0.0
8.78602276e-02 1.25496074e-02 0.0
1.00741731e-01 1.22148808e-02 0.0
1.11969467e-01 1.19416429e-02 0.0
1.17267547e-01 1.42804033e-02 0.0
1.28489796e-01 1.19330711e-02 0.0
1.36476450e-01 1.40998398e-02 0.0
1.41666324e-01 1.47769036e-02 0.0
1.51838599e-01 1.31851671e-02 0.0
1.60048287e-01 1.35071692e-02 0.0
1.68517149e-01 1.50766160e-02 0.0
1.79126842e-01 1.22298160e-02 0.0
1.88349830e-01 1.11595802e-02 0.0
1.93329715e-01 1.49660170e-02 0.0
2.02381531e-01 1.31514801e-02 0.0
2.10052024e-01 1.33458150e-02 0.0
2.17884148e-01 1.53575154e-02 0.0
2.27705526e-01 1.30462802e-02 0.0
2.36921873e-01 1.45449518e-02 0.0
2.45195270e-01 1.50279166e-02 0.0
2.51138541e-01 1.32451552e-02 0.0
2.61903748e-01 1.49990604e-02 0.0
2.69156077e-01 1.42603055e-02 0.0
2.79505157e-01 1.31981212e-02 0.0
2.86813866e-01 1.37815500e-02 0.0
2.94071315e-01 1.57308684e-02 0.0
3.04037610e-01 1.53034359e-02 0.0
3.13160277e-01 1.41159783e-02 0.0
3.20629373e-01 1.36196163e-02 0.0
3.28496642e-01 1.38895061e-02 0.0
3.36559621e-01 1.49762655e-02 0.0
3.43591660e-01 1.72196528e-02 0.0
3.51713635e-01 1.22652175e-02 0.0
3.63359635e-01 1.52707014e-02 0.0
3.70962887e-01 1.50259937e-02 0.0
3.78412743e-01 1.27400985e-02 0.0
3.86948037e-01 1.30698762e-02 0.0
3.96698894e-01 1.38641624e-02 0.0
4.02404286e-01 1.36029559e-02 0.0
4.12663258e-01 1.32398457e-02 0.0
4.19215919e-01 1.44496378e-02 0.0
4.29218309e-01 1.33249245e-02 0.0
4.36548838e-01 1.44322010e-02 0.0
4.43488235e-01 1.19756221e-02 0.0
4.52984858e-01 1.37646867e-02 0.0
4.62930557e-01 1.62951192e-02 0.0
4.72153149e-01 1.38448618e-02 0.0
4.79242936e-01 1.25823589e-02 0.0
4.87647051e-01 1.36519930e-02 0.0
4.96561700e-01 1.28450187e-02 0.0
5.05259680e-01 1.63810991e-02 0.0
5.12721913e-01 1.46864151e-02 0.0
5.22322319e-01 1.34833350e-02 0.0
5.30027368e-01 1.41033750e-02 0.0
5.38241312e-01 1.29262614e-02 0.0
5.46535045e-01 1.48306869e-02 0.0
5.57076014e-01 1.55218384e-02 0.0
5.66531281e-01 1.29347455e-02 0.0
5.73015453e-01 1.43592191e-02 0.0
5.83392875e-01 1.28733866e-02 0.0
5.87256922e-01 1.31864021e-02 0.0
5.93736131e-01 1.32967377e-02 0.0
6.04184397e-01 1.43098508e-02 0.0
6.14237284e-01 1.68956831e-02 0.0
6.23552647e-01 1.32200987e-02 0.0
6.29185786e-01 1.48215782e-02 0.0
6.36957112e-01 1.68286884e-02 0.0
6.49105880e-01 1.33815138e-02 0.0
6.53175128e-01 1.61130929e-02 0.0
6.63973757e-01 1.59391993e-02 0.0
6.70159716e-01 1.31864285e-02 0.0
6.80959958e-01 1.41549008e-02 0.0
6.88681103e-01 1.50177594e-02 0.0
6.96159146e-01 1.38711716e-02 0.0
7.06342431e-01 1.48553207e-02 0.0
7.15631801e-01 1.23993903e-02 0.0
7.20670255e-01 1.59989247e-02 0.0
7.31870195e-01 1.29630061e-02 0.0
7.42099812e-01 1.42578291e-02 0.0
7.49946002e-01 1.41856739e-02 0.0
7.59670092e-01 1.67146365e-02 0.0
7.64612677e-01 1.55402684e-02 0.0
7.74356081e-01 1.61352074e-02 0.0
7.80346636e-01 1.51124579e-02 0.0
7.91781698e-01 1.14492852e-02 0.0
7.96826215e-01 1.10290067e-02 0.0
8.06598854e-01 1.51596424e-02 0.0
8.17656952e-01 1.41955276e-02 0.0
8.26249494e-01 1.20166206e-02 0.0
8.29660328e-01 1.40012767e-02 0.0
8.41191435e-01 1.40355186e-02 0.0
8.45921559e-01 1.39509733e-02 0.0
8.55468127e-01 1.50879164e-02 0.0
8.66375346e-01 1.26762304e-02 0.0
8.73459456e-01 1.24974257e-02 0.0
8.82538858e-01 1.55156524e-02 0.0
8.89559164e-01 1.48397493e-02 0.0
8.98644980e-01 1.28964995e-02 0.0
9.07682488e-01 1.25333432e-02 0.0
9.15416654e-01 1.22896568e-02 0.0
9.27593443e-01 1.41373445e-02 0.0
9.32004502e-01 1.44051256e-02 0.0
9.41287995e-01 1.37534154e-02 0.0
9.50779906e-01 1.52195250e-02 0.0
9.57468145e-01 1.32217250e-02 0.0
9.66254261e-01 1.06354044e-02 0.0
9.72799449e-01 1.61325744e-02 0.0
9.85937861e-01 1.37113618e-02 0.0
9.92740360e-01 1.45508713e-02 0.0
9.98000000e-01 1.57620314e-02 0.0
2.00000000e-03 2.67372722e-02 0.0
6.55599421e-03 2.84738755e-02 0.0
1.62331033e-02 2.60379685e-02 0.0
2.48009512e-02 2.65484677e-02 0.0
3.67010530e-02 2.94900263e-02 0.0
4.25645258e-02 3.03865006e-02 0.0
5.10957585e-02 2.68785018e-02 0.0
6.16653799e-02 2.89764944e-02 0.0
6.62323894e-02 2.78838186e-02 0.0
7.48779272e-02 2.60970847e-02 0.0
8.59810242e-02 3.10300043e-02 0.0
9.09010845e-02 2.90125437e-02 0.0
1.00425105e-01 2.74391257e-02 0.0
1.08915744e-01 2.68744464e-02 0.0
1.18279427e-01 2.69239531e-02 0.0
1.27015326e-01 2.80937394e-02 0.0
1.34655417e-01 2.68091586e-02 0.0
1.42552598e-01 2.93008608e-02 0.0
1.52570723e-01 2.67042861e-02 0.0
1.60372366e-01 2.92948612e-02 0.0
1.66125525e-01 2.89831623e-02 0.0
1.76037405e-01 2.90239753e-02 0.0
1.84289979e-01 2.54646541e-02 0.0
1.91398334e-01 2.82410626e-02 0.0
2.02629495e-01 2.68140238e-02 0.0
2.11600539e-01 2.56794618e-02 0.0
2.18948049e-01 2.63544780e-02 0.0
2.26473737e-01 2.82400343e-02 0.0
2.34564575e-01 2.75928121e-02 0.0
2.45764931e-01 2.73046234e-02 0.0
2.53912672e-01 2.64763085e-02 0.0
2.61857703e-01 3.03290003e-02 0.0
2.65763819e-01 2.69749795e-02 0.0
2.78735250e-01 2.78647794e-02 0.0
2.86830060e-01 2.72640279e-02 0.0
2.94807055e-01 2.79357538e-02 0.0
3.04830429e-01 2.85502277e-02 0.0
3.11989884e-01 2.75518748e-02 0.0
3.19156787e-01 2.75208869e-02 0.0
3.28881788e-01 2.75382285e-02 0.0
3.37128305e-01 3.12787080e-02 0.0
3.46402737e-01 2.76805140e-02 0.0
3.55300690e-01 2.75575710e-02 0.0
3.58850362e-01 2.66585396e-02 0.0
3.67504448e-01 2.76423210e-02 0.0
3.78738523e-01 3.06809178e-02 0.0
3.87604141e-01 2.78407230e-02 0.0
3.96760395e-01 2.48559412e-02 0.0
4.04274045e-01 2.93240463e-02 0.0
4.10108919e-01 2.98827674e-02 0.0
4.21234921e-01 2.75467640e-02 0.0
[...]
CELL_DATA 16909
SCALARS z float 1
LOOKUP_TABLE default
2.54692854e+01
4.61875834e+00
5.82688613e+00
1.95710393e+00
2.81220076e+00
4.61875834e+00
1.94619394e+00
1.89584907e+00
1.89393723e+00
2.68310968e+00
3.10194793e+00
1.96266657e+00
2.33123842e+00
6.81822974e+00
1.92040626e+00
1.95710393e+00
4.77372261e+00
5.99366381e+00
6.37634575e+00
2.07239210e+00
4.67098394e+00
3.98442748e+00
6.00785619e+00
7.38799723e+00
4.94649472e+00
1.94332472e+00
1.94332472e+00
2.16162684e+00
5.64894131e+00
5.64894131e+00
1.18519369e+01
1.89706613e+00
1.93017625e+00
4.02862592e+00
5.17754675e+00
1.91079018e+00
1.94619394e+00
2.22950325e+00
1.98397556e+00
1.91506259e+00
1.94578215e+00
1.89664639e+00
1.89664639e+00
3.63384263e+00
1.92460166e+00
5.80964655e+00
2.04105557e+00
3.50671709e+00
2.56361931e+00
4.33752986e+00
2.12303213e+00
2.04228472e+00
8.20463184e+00
2.15822817e+00
2.72709280e+00
4.21676421e+00
4.21676421e+00
4.69961516e+00
5.06272424e+00
6.52442719e+00
8.92104327e+00
4.01713165e+00
6.36584628e+00
3.02024173e+00
7.88819539e+00
4.01433723e+00
7.17664128e+00
9.83236709e+00
1.13447507e+01
5.46751552e+00
4.33211731e+00
6.83151731e+00
6.75894127e+00
4.77372261e+00
7.38799723e+00
5.53518280e+00
4.78569386e+00
4.34198428e+00
6.78372763e+00
4.34198428e+00
8.37984170e+00
3.93748813e+00
9.61164860e+00
5.73078203e+00
4.49857954e+00
6.18117540e+00
3.50773710e+00
7.61630906e+00
3.79809757e+00
6.87118217e+00
3.79809757e+00
8.13641381e+00
3.19849847e+00
3.19849847e+00
3.47369798e+00
4.78920479e+00
9.88433364e+00
3.25739349e+00
4.84277389e+00
5.35382181e+00
6.17160195e+00
4.28377107e+01
8.55504431e+00
9.26754448e+00
1.24330082e+01
2.07239210e+00
4.83583455e+00
6.44597573e+00
5.87306693e+00
5.08508640e+00
7.81699863e+00
4.43432427e+00
1.35307492e+01
4.38075658e+00
4.38075658e+00
5.22817676e+00
5.41699154e+00
5.41699154e+00
4.09227535e+00
7.99285217e+00
4.09227535e+00
8.66318138e+00
1.02237972e+01
5.85216147e+00
5.90010041e+00
8.96365119e+00
7.19042926e+00
7.16570892e+00
5.30088823e+00
4.29972607e+00
7.16570892e+00
5.00388340e+00
6.55347549e+00
6.55347549e+00
2.84948153e+00
2.84948153e+00
7.10039687e+00
4.43166118e+00
6.50591972e+00
4.35281148e+00
6.19080265e+00
1.16854539e+01
3.85587576e+00
7.56798840e+00
6.19080265e+00
6.86606896e+00
4.09405533e+00
3.85651207e+00
5.41363241e+00
4.72163084e+00
4.89206282e+00
4.89206282e+00
5.96175918e+00
4.85148096e+00
8.80695692e+00
4.37136324e+00
4.07835306e+00
5.38675737e+00
6.23042481e+00
6.23042481e+00
4.16737369e+00
4.16737369e+00
6.21065782e+00
6.21065782e+00
4.56647326e+00
5.83179675e+00
5.86804675e+00
3.93441484e+00
5.76390219e+00
3.93441484e+00
4.56647326e+00
6.44342589e+00
4.70994756e+00
4.31715194e+00
4.31715194e+00
4.50199266e+00
4.50199266e+00
5.64468932e+00
7.65317449e+00
5.61227007e+00
4.89330924e+00
3.83682308e+00
1.05748849e+01
3.80482017e+00
4.30077734e+00
5.38284677e+00
5.38924134e+00
5.24089681e+00
3.80482017e+00
4.28979911e+00
5.69222119e+00
1.06248856e+01
6.99490612e+00
4.63706869e+00
2.75557677e+00
5.28696158e+00
3.55670705e+00
4.38096813e+00
6.43909509e+00
1.58181397e+01
4.20173363e+00
2.23560476e+00
4.50751931e+00
5.33146124e+00
4.50519750e+00
6.51248866e+00
5.68624632e+00
1.07450835e+01
1.91347197e+01
6.51248866e+00
8.79926582e+00
8.14652752e+00
5.00519660e+00
1.73883497e+01
1.94320858e+00
5.39079320e+00
7.44161210e+00
5.08100835e+00
5.61575155e+00
1.12113514e+01
4.07752203e+00
3.47998661e+00
4.03589661e+00
5.09912430e+00
3.78758259e+00
2.02968228e+00
1.65445880e+01
8.29150010e+00
1.75964756e+01
4.47155596e+00
4.96909203e+00
1.99073951e+00
3.11551141e+00
2.22407893e+00
1.81317013e+01
1.81317013e+01
5.41900418e+00
4.54823365e+00
6.66022803e+00
7.72996860e+00
4.88678581e+00
6.22071922e+00
3.49915214e+00
7.30717480e+00
5.55656502e+00
2.12213090e+00
2.12213090e+00
3.35254751e+00
6.19657226e+00
2.31114379e+00
1.92914561e+00
1.91513468e+00
1.92460166e+00
2.01263954e+00
2.43198552e+00
2.14523673e+00
1.92914561e+00
1.96938655e+00
3.67905254e+00
8.33782358e+00
5.26704499e+00
7.09036794e+00
7.08132530e+00
4.95925269e+00
5.28081323e+00
1.24887404e+01
5.50851255e+00
3.99283204e+00
6.78238237e+00
2.99063067e+00
2.99063067e+00
4.17751246e+00
3.47180648e+00
7.59181445e+00
7.17263631e+00
7.17263631e+00
8.11693873e+00
4.02589437e+00
5.23041473e+00
4.04902152e+00
2.90606504e+00
4.04902152e+00
2.17211324e+00
2.96380015e+00
2.73072748e+00
5.23041473e+00
9.26503727e+00
6.48183215e+00
1.08669462e+01
5.26920344e+00
5.96727636e+00
6.42568475e+00
4.79415482e+00
3.02024173e+00
5.29528291e+00
6.42568475e+00
8.35480209e+00
8.35480209e+00
1.05823546e+01
1.00875289e+01
4.31126457e+00
4.01713165e+00
4.49525777e+00
4.49525777e+00
5.80925149e+00
3.91574856e+00
3.91574856e+00
3.45582946e+00
5.96567616e+00
9.94851136e+00
4.13787309e+00
4.01433723e+00
3.43994468e+00
4.49905590e+00
4.49905590e+00
4.80351944e+00
7.21961150e+00
4.00440070e+00
4.00440070e+00
5.50479689e+00
7.39898336e+00
3.89534358e+00
6.80676714e+00
2.12032615e+00
2.76446491e+00
2.07596245e+00
6.70301287e+00
3.26213473e+00
3.87749400e+00
4.47245704e+00
4.56640138e+00
5.52803351e+00
5.22379407e+00
5.22379407e+00
4.16113547e+00
4.54117932e+00
4.54117932e+00
5.18862612e+00
1.13447507e+01
1.35885924e+01
3.81000538e+00
4.26636147e+00
3.75631517e+00
9.45618849e+00
3.75631517e+00
4.91076685e+00
5.71628953e+00
5.71628953e+00
6.83151731e+00
7.87239233e+00
4.94764831e+00
1.48707547e+01
8.32952389e+00
4.45762466e+00
4.45762466e+00
6.98342050e+00
6.98342050e+00
1.07660838e+01
4.44657969e+00
2.55482455e+01
5.82688613e+00
5.46751552e+00
4.53146926e+00
5.12551439e+00
5.18521464e+00
5.99112319e+00
6.58385533e+00
7.06613474e+00
3.85493660e+00
3.85493660e+00
5.53518280e+00
5.22233391e+00
4.25538035e+00
1.60172591e+01
4.45599469e+00
1.38165079e+01
6.33689693e+00
3.33730648e+00
5.92067685e+00
6.17664144e+00
6.18117540e+00
6.01264003e+00
6.64909583e+00
1.50388284e+01
4.79329298e+00
4.95184682e+00
4.91097009e+00
4.23640229e+00
3.82634047e+00
6.05153435e+00
6.05153435e+00
5.65078081e+00
5.78045710e+00
4.70079653e+00
5.27470843e+00
5.75588819e+00
5.75588819e+00
5.75682036e+00
4.63371519e+00
2.32758765e+01
7.08407868e+00
4.95184682e+00
7.65688057e+00
8.13641381e+00
9.20261378e+00
4.14206331e+00
1.19727698e+01
5.78297110e+00
7.64388626e+00
3.24183041e+00
4.16358423e+00
5.38491101e+00
4.14045765e+00
4.14951654e+00
4.64724050e+00
5.42922679e+00
2.36807624e+01
4.26650307e+00
3.48022118e+00
5.48792347e+00
5.18678311e+00
6.03359939e+00
1.13975046e+01
1.22314676e+01
4.92113905e+00
4.92247500e+00
3.25739349e+00
7.72444038e+00
5.56519023e+00
4.82672259e+00
8.46474446e+00
1.18939998e+01
8.82957842e+00
5.95312259e+00
8.46474446e+00
5.53434547e+00
5.31188671e+00
5.71101589e+00
4.18203527e+00
5.83896457e+00
8.01250190e+00
4.84277389e+00
7.04147954e+00
7.04595704e+00
4.64761426e+00
6.42749977e+00
3.74680135e+00
8.71341825e+00
6.99275138e+00
6.99275138e+00
9.98071520e+00
6.43646478e+00
6.43646478e+00
6.17160195e+00
7.03688257e+00
8.22112853e+00
4.34199794e+00
1.74235113e+01
6.36281184e+00
9.23816736e+00
4.64362797e+00
5.67261335e+00
5.67261335e+00
6.41522429e+00
6.03019731e+00
6.03019731e+00
4.04805779e+00
4.04805779e+00
7.91970315e+00
1.20481278e+01
6.43458695e+00
2.96705217e+01
5.67098198e+00
2.98992994e+00
4.61645923e+00
5.61074380e+01
3.88031196e+00
5.72656563e+00
5.72505647e+00
7.11082760e+00
1.24583307e+01
3.88183687e+00
4.44095063e+00
4.51355312e+00
4.09911200e+00
5.18105457e+00
7.01694041e+00
4.02724222e+00
3.92062097e+00
4.68984712e+00
4.19241918e+00
4.68984712e+00
7.02520405e+00
5.18105457e+00
7.02946722e+00
4.51654535e+00
6.69093827e+00
4.43432427e+00
1.26110154e+01
3.17574389e+00
4.37258055e+00
8.94809317e+00
5.09508583e+00
4.07334141e+00
4.49470481e+00
4.12441591e+00
4.12441591e+00
1.03056871e+01
8.29044439e+00
7.04186185e+00
6.87755649e+00
5.65351153e+00
1.02486302e+01
8.37438948e+00
4.19520061e+00
8.19569428e+00
8.19569428e+00
6.00785619e+00
7.11190226e+00
4.82892732e+00
9.10616395e+00
4.82892732e+00
4.29972607e+00
6.63619474e+00
5.08259226e+00
4.66671054e+00
6.42670855e+00
6.42670855e+00
6.24130734e+00
1.16264499e+01
4.17590474e+00
4.25021521e+00
1.17193204e+01
8.97624993e+00
5.24557778e+00
4.60493414e+00
4.06507964e+00
1.09729405e+01
5.63574685e+00
6.50012465e+00
6.50012465e+00
5.90158463e+00
5.21603774e+00
6.69006401e+00
7.49454895e+00
7.68524839e+00
4.77864204e+00
1.15226492e+01
4.57486748e+00
1.04717543e+01
4.74743873e+00
9.88433364e+00
7.10039687e+00
6.22646270e+00
5.21498163e+00
4.09639111e+00
5.21498163e+00
2.99573381e+00
5.84614452e+00
6.72219985e+00
6.49792486e+00
5.27649655e+00
4.41952509e+01
4.43166118e+00
1.33588785e+01
7.05238013e+00
3.69172679e+00
3.59458563e+00
3.59458563e+00
5.47209009e+00
2.88331922e+01
7.28646850e+00
4.61125504e+00
4.98942918e+00
4.98942918e+00
4.69214056e+00
9.23482042e+00
6.83099725e+00
1.58407161e+01
5.90513566e+00
5.90513566e+00
3.87122439e+00
4.50399143e+00
5.63220819e+00
3.85587576e+00
4.15922167e+00
6.00467001e+00
6.00467001e+00
4.39036653e+00
4.73442212e+00
3.61947562e+00
4.12444309e+00
4.26311711e+00
4.26311711e+00
5.77851148e+00
1.12407911e+01
6.30047899e+00
4.97028995e+00
1.01418451e+01
1.52553124e+01
6.50591972e+00
4.82872325e+00
4.40961648e+00
4.12444309e+00
6.69001741e+00
4.27782052e+00
4.40961648e+00
4.36915441e+00
4.08973533e+00
4.08973533e+00
4.49086240e+00
6.07889559e+00
5.44053897e+00
1.39914648e+01
5.33026566e+00
8.67838557e+00
5.38564041e+00
8.47784462e+00
4.86920456e+00
4.81859840e+00
6.04532810e+00
5.65549825e+00
7.75523368e+00
5.69914899e+00
6.28466056e+00
8.50640921e+00
4.92889248e+00
7.44581330e+00
8.13557713e+00
9.25294576e+00
6.62176183e+00
5.17657882e+00
4.57662415e+00
4.57662415e+00
4.79381047e+00
4.46895670e+00
6.40152726e+00
1.08110042e+01
5.35755485e+00
5.15890981e+00
5.35755485e+00
8.70856413e+00
7.04569259e+00
4.89330924e+00
6.82592477e+00
4.50000712e+00
8.41375273e+00
4.64324426e+00
4.31460626e+00
2.90387770e+00
4.06634220e+00
5.76127764e+00
5.55458396e+00
5.55458396e+00
4.53854396e+00
5.85872850e+00
5.40311331e+00
9.74305460e+00
8.21696866e+00
4.63706869e+00
7.95379288e+00
3.80741916e+00
3.54895632e+00
9.40840944e+00
4.64415760e+00
7.52245958e+00
4.69883781e+00
5.53395874e+00
4.85241905e+00
4.69991160e+00
5.79694800e+00
7.27156640e+00
4.03056645e+00
7.27156640e+00
4.32546297e+00
6.93532642e+00
4.32546297e+00
4.46702578e+00
8.34824294e+00
5.06591706e+00
4.66638163e+00
4.34243238e+00
5.73078203e+00
8.56435392e+00
1.69852452e+01
1.69852452e+01
5.38578088e+00
5.35567729e+00
3.06250023e+00
5.75083939e+00
4.82388723e+00
6.56954876e+00
4.30932348e+00
9.52884770e+00
5.38284677e+00
6.82922869e+00
5.91641023e+00
5.91641023e+00
7.54686146e+00
9.13047210e+00
3.37791716e+00
3.37791716e+00
4.88650129e+00
5.63872483e+00
4.88650129e+00
5.23129589e+00
4.45309310e+00
4.66638163e+00
3.91901245e+00
5.02234576e+00
3.68273367e+00
5.07906180e+00
5.07906180e+00
1.17995122e+01
7.12065100e+00
5.76320465e+00
3.91951186e+00
3.91951186e+00
7.56388590e+00
4.14248632e+00
5.35105291e+00
4.83102808e+00
5.25588419e+00
4.20584859e+00
1.43703951e+01
3.68273367e+00
4.15679959e+00
4.20584859e+00
4.15679959e+00
8.34786214e+00
8.52125158e+00
4.58806770e+00
5.69222119e+00
4.57064401e+00
4.57064401e+00
4.48919850e+00
4.37516013e+00
5.79495355e+00
2.16391667e+00
4.79597684e+00
5.84197540e+00
8.38408830e+00
4.85396079e+00
4.18046753e+00
2.75345792e+00
5.22234861e+00
9.65112942e+00
9.65112942e+00
4.62370939e+00
4.07606980e+00
5.87173523e+00
3.55670705e+00
6.51144215e+00
4.07606980e+00
1.41816310e+01
3.02391987e+00
2.73880745e+01
4.75390068e+00
3.67054952e+00
6.73461507e+00
6.34590131e+00
5.33146124e+00
8.33996334e+00
2.35832983e+00
2.51260978e+00
6.06037800e+00
6.06037800e+00
6.20108939e+00
5.71408867e+00
5.71408867e+00
6.85709828e+00
8.94234163e+00
5.00519660e+00
6.04829977e+00
6.04829977e+00
5.21701200e+00
4.30510628e+00
7.40445999e+00
5.21701200e+00
5.68624632e+00
3.48132609e+00
5.29583510e+00
4.80604895e+00
1.10425346e+01
2.05714750e+00
5.04303229e+00
2.35832983e+00
5.09893490e+00
4.39761260e+00
5.73553764e+00
4.47638213e+00
4.47638213e+00
5.74877704e+00
4.44545376e+00
5.80247075e+00
4.29864952e+00
6.06592026e+00
5.64342274e+00
4.65008294e+00
5.80247075e+00
4.29864952e+00
4.26424808e+00
4.77859679e+00
8.61137940e+00
4.38722871e+00
9.66669571e+00
5.01152407e+00
5.53602330e+00
4.13895620e+00
6.60392973e+00
7.46111575e+00
5.55741938e+00
4.02184093e+00
4.37243542e+00
4.04837950e+00
4.15741883e+00
5.18911430e+00
5.01969752e+00
4.02862592e+00
8.25610776e+00
9.90005548e+00
5.91699632e+00
3.39061530e+00
4.27060612e+00
5.62584087e+00
7.80353130e+00
9.31246975e+00
8.28157404e+00
4.96244129e+00
4.39973972e+00
4.39973972e+00
4.72457710e+00
8.61544413e+00
6.69318272e+00
4.84620684e+00
4.64359647e+00
7.13254616e+00
8.02106184e+00
6.41068035e+00
4.07752203e+00
5.61575155e+00
1.05062284e+01
4.68271480e+00
4.29199868e+00
8.28157404e+00
7.88250530e+00
4.71924948e+00
6.28885746e+00
9.62649387e+00
6.73345563e+00
3.47998661e+00
8.08585173e+00
1.81371664e+01
1.20351021e+01
3.11071256e+01
7.22788078e+00
4.32500822e+00
4.32500822e+00
6.60243631e+00
5.47415897e+00
3.70993711e+00
5.37851550e+00
7.07671899e+00
3.78758259e+00
7.07671899e+00
5.16775684e+00
5.16775684e+00
4.26957637e+00
1.94576390e+00
1.94576390e+00
4.72187931e+00
4.22118299e+00
5.47783973e+00
4.22118299e+00
4.04066996e+00
4.04066996e+00
6.30153662e+00
5.16638949e+00
9.35356726e+00
3.58887787e+00
5.04246288e+00
1.92852516e+00
2.77549231e+00
6.47722683e+00
4.76894334e+00
4.29084113e+00
6.40957154e+00
6.00131777e+00
4.95925269e+00
4.96909203e+00
4.12645082e+00
4.47155596e+00
4.12645082e+00
1.01629548e+01
1.01629548e+01
5.32159665e+00
6.90354643e+00
5.41900418e+00
5.25311006e+00
5.25311006e+00
5.65081196e+00
8.22207436e+00
4.91539032e+00
4.13895620e+00
4.91539032e+00
4.84358593e+00
7.85172215e+00
3.87158398e+00
3.87158398e+00
5.25413566e+00
8.91563196e+00
6.29396952e+00
4.06745535e+00
6.35902600e+00
4.50519162e+00
5.04988709e+00
5.04988709e+00
4.25181807e+00
1.83982016e+01
8.88840107e+00
9.86018969e+00
9.45760407e+00
3.97522343e+00
6.86970355e+00
5.80964655e+00
2.97339905e+00
2.59984642e+00
4.35312311e+00
6.79741217e+00
3.69066175e+00
7.35938467e+00
8.25517485e+00
5.47783973e+00
3.73522493e+00
8.62879027e+00
5.37595898e+00
4.14767616e+00
7.51293114e+00
4.65992820e+00
7.35269761e+00
4.36964796e+00
6.65196453e+00
5.21926413e+00
9.40697821e+00
4.38877239e+00
1.27775350e+01
4.38877239e+00
6.57758582e+00
5.90423939e+00
6.16649268e+00
4.57895304e+00
8.37446800e+00
5.50851255e+00
9.61605630e+00
3.66219595e+00
6.50882458e+00
6.81069440e+00
3.79415570e+00
8.43070453e+00
7.21193562e+00
8.58059626e+00
9.89258531e+00
9.89258531e+00
6.72577143e+00
4.90685537e+00
7.69414711e+00
5.43399779e+00
3.08637677e+00
5.20956746e+00
5.25027177e+00
5.20956746e+00
7.84526986e+00
7.28142369e+00
6.31212761e+00
7.84526986e+00
1.05114159e+01
2.01364862e+00
2.56516947e+00
9.90210083e+00
4.12627652e+00
4.12627652e+00
4.77109443e+00
4.77109443e+00
4.65926945e+00
1.10160218e+01
4.93521124e+00
5.69079041e+00
6.73295748e+00
6.73295748e+00
5.66548254e+00
5.66548254e+00
7.64897548e+00
4.14404585e+00
3.80293667e+00
3.50847931e+00
3.50847931e+00
8.88873742e+00
4.02589437e+00
4.62674963e+00
4.91632366e+00
6.48183215e+00
2.71933472e+00
8.10307669e+00
4.25355353e+00
4.25355353e+00
4.95210508e+00
4.25064503e+00
1.32573005e+01
5.23965005e+00
4.14404585e+00
5.77908358e+00
5.29528291e+00
6.20315190e+00
8.67816904e+00
7.89077883e+00
4.25064503e+00
6.84639527e+00
3.74449125e+00
4.84312239e+00
8.60059966e+00
7.89077883e+00
4.50837775e+00
5.12501958e+00
3.70364336e+00
3.45288102e+00
7.87801674e+00
7.87801674e+00
1.09718853e+01
5.06272424e+00
3.84225649e+00
1.09718853e+01
3.72046738e+00
3.29806222e+00
3.29806222e+00
5.54948431e+00
9.53288535e+00
4.73690056e+00
5.73333980e+00
1.25710247e+01
8.67119339e+00
5.61679672e+00
5.73333980e+00
5.61679672e+00
6.75814906e+00
6.75814906e+00
1.01029656e+01
1.16332172e+01
6.04615324e+00
6.04615324e+00
3.29846829e+00
3.29846829e+00
4.15335868e+00
4.13787309e+00
5.18918751e+00
5.18918751e+00
5.96567616e+00
9.94851136e+00
7.21961150e+00
6.09241790e+00
6.09241790e+00
4.94847255e+00
3.43994468e+00
5.23965005e+00
1.02036540e+01
4.15335868e+00
5.77950291e+00
4.21840693e+00
4.47470940e+00
4.47470940e+00
4.16225048e+00
4.16225048e+00
4.71014891e+00
4.39326291e+00
4.39326291e+00
7.39898336e+00
7.88819539e+00
6.80676714e+00
2.10837591e+00
2.10837591e+00
5.56075291e+00
8.56393873e+00
6.70301287e+00
1.23587834e+01
7.58069649e+00
7.58069649e+00
6.80927853e+00
7.80360961e+00
7.80360961e+00
5.63570516e+00
3.64775368e+00
6.04401305e+00
6.04401305e+00
5.36496965e+00
4.52497380e+00
7.63907535e+00
4.21653209e+00
4.91784770e+00
7.00376446e+00
4.47245704e+00
5.67895753e+00
5.67895753e+00
3.87749400e+00
2.82336635e+00
5.24914990e+00
4.21931971e+00
6.04284231e+00
5.88949853e+00
4.37491088e+00
5.87694613e+00
4.33709440e+00
3.31545989e+00
7.21220686e+00
5.81018593e+00
3.78516913e+00
3.78516913e+00
4.23676657e+00
5.83304207e+00
6.10019313e+00
5.59136418e+00
5.59136418e+00
7.72340087e+00
7.72340087e+00
5.59298835e+00
5.52803351e+00
3.94171061e+00
1.11415779e+01
1.38980722e+01
5.18862612e+00
1.24484328e+01
3.31259584e+00
4.03459723e+00
7.43304538e+00
4.83675064e+00
4.83675064e+00
7.11072611e+00
4.25309883e+00
6.10645138e+00
6.10645138e+00
1.41492711e+01
8.10739954e+00
5.37667310e+00
6.17645024e+00
4.18826138e+00
3.81000538e+00
4.26636147e+00
3.95414344e+00
5.73669527e+00
4.34910276e+00
7.07087036e+00
5.73669527e+00
4.41009530e+00
4.41009530e+00
4.07493754e+00
4.07493754e+00
6.74192842e+00
4.64618631e+00
8.07234649e+00
5.33548669e+00
4.56238854e+00
6.17714780e+00
3.79486900e+00
4.15430823e+00
4.15430823e+00
4.47851123e+00
4.80090313e+00
4.47673001e+00
2.22792134e+01
5.13570934e+00
4.44649289e+00
4.33508302e+00
5.51271783e+00
3.73702706e+00
3.73702706e+00
4.17755728e+00
7.69942966e+00
4.92186426e+00
4.92186426e+00
4.61846879e+00
6.53364664e+00
6.87326587e+00
4.56525949e+00
4.61846879e+00
6.53364664e+00
4.94764831e+00
3.62496163e+00
7.36924445e+00
5.31891393e+00
4.56943599e+00
4.56943599e+00
1.73285669e+01
2.03330547e+01
5.15910646e+00
4.24395487e+00
4.36577471e+00
6.36690257e+00
7.56723339e+00
7.56723339e+00
8.32952389e+00
1.48707547e+01
4.46241233e+00
4.69901072e+00
6.49495661e+00
3.93586738e+00
7.08143339e+00
6.83642130e+00
6.83642130e+00
7.86450076e+00
6.68329266e+00
6.08370602e+00
5.37667310e+00
5.42110435e+00
5.49415446e+00
5.24494476e+00
5.24494476e+00
8.90825853e+00
3.58600787e+00
3.69609353e+00
7.69942966e+00
1.30956684e+01
4.02219348e+00
4.02219348e+00
1.07660838e+01
5.62653181e+00
4.09296032e+00
4.53146926e+00
1.30697238e+01
4.44657969e+00
5.15485327e+00
5.15485327e+00
5.01513123e+00
7.54316154e+00
5.79177598e+00
7.65878502e+00
4.12486722e+00
4.75727297e+00
7.04634384e+00
8.24914298e+00
5.66853022e+00
4.75727297e+00
8.15954751e+00
4.93769949e+00
8.39018798e+00
7.85666543e+00
1.54931316e+01
7.15028537e+00
8.14034149e+00
9.84221273e+00
5.94503643e+00
5.94503643e+00
4.31379125e+00
4.64415760e+00
7.55090311e+00
7.06613474e+00
4.48814833e+00
4.78569386e+00
6.33689693e+00
5.03631644e+00
4.13270548e+00
5.02924141e+00
5.72038863e+00
5.72038863e+00
4.35949441e+00
4.49233948e+00
4.20126517e+00
4.62463665e+00
4.62463665e+00
6.77338856e+00
4.95282509e+00
3.23887664e+00
7.11433764e+00
7.11433764e+00
1.97301848e+01
5.94674244e+00
4.72789120e+00
4.23878462e+00
4.23878462e+00
4.58206938e+00
3.76009120e+00
5.33062985e+00
5.50384418e+00
5.50384418e+00
6.04032105e+00
3.26488603e+00
3.26488603e+00
4.40360377e+00
5.23974091e+00
1.75108193e+01
8.13034339e+00
6.67738041e+00
4.51610341e+00
6.70792795e+00
5.13514962e+00
5.13514962e+00
3.08004080e+00
8.28702724e+00
1.18196522e+01
1.18196522e+01
9.49909657e+00
4.92055792e+00
7.57407359e+00
6.06475674e+00
4.71348402e+00
9.22122211e+00
4.92055792e+00
4.51296334e+00
5.06696735e+00
5.19230125e+00
6.21690198e+00
1.92326610e+01
7.25253330e+00
7.25253330e+00
5.30046393e+00
6.74582700e+00
5.61593548e+00
5.61593548e+00
3.35133881e+00
5.27549407e+00
4.45599469e+00
4.58277570e+00
6.60912845e+00
7.06638021e+00
7.06638021e+00
4.42134086e+01
6.26602723e+00
6.26602723e+00
5.83550844e+00
4.14108822e+00
4.27027171e+00
4.14108822e+00