# vtk DataFile Version 2.0
z-phase-transition mesh
ASCII
DATASET UNSTRUCTURED_GRID

POINTS 7600 float
3.61859203e-01 9.55373585e-01 0.0
7.47755545e-01 5.83818873e-01 0.0
1.71852394e-01 1.57055823e-01 0.0
7.92692373e-02 8.62094492e-01 0.0
6.08840706e-01 7.07249717e-01 0.0
1.86348105e-02 9.75156922e-01 0.0
8.43320722e-01 1.87017427e-01 0.0
2.10876693e-01 1.45719553e-01 0.0
2.90364936e-01 5.22846125e-01 0.0
4.40301165e-01 3.23169332e-01 0.0
5.74195732e-01 1.29205743e-01 0.0
2.49045643e-01 3.67002644e-01 0.0
4.61575489e-01 8.17412484e-01 0.0
2.02118373e-01 5.35390982e-01 0.0
6.04245677e-01 3.76303689e-02 0.0
5.78993107e-01 1.76096880e-01 0.0
3.48150400e-02 9.75132132e-01 0.0
9.62347942e-01 8.32616902e-01 0.0
2.94882512e-01 1.03120214e-01 0.0
6.88475356e-01 4.39239702e-01 0.0
1.13270649e-01 5.03129796e-01 0.0
1.56203777e-02 8.84811920e-01 0.0
2.83965124e-01 6.77257908e-01 0.0
3.13046330e-01 5.53811133e-01 0.0
5.41284172e-01 2.11658243e-01 0.0
9.73142531e-01 7.54366864e-01 0.0
9.76948368e-01 9.14903512e-01 0.0
5.95447560e-01 9.36609925e-01 0.0
8.03116940e-02 2.12785071e-01 0.0
1.00000000e-03 3.04664668e-01 0.0
4.08521401e-01 2.66289912e-01 0.0
8.32943229e-01 3.29461523e-01 0.0
3.18380427e-01 5.66821453e-01 0.0
1.36857459e-01 7.93996062e-01 0.0
9.54149589e-02 9.99000000e-01 0.0
7.91572149e-01 2.42725961e-01 0.0
1.00000000e-03 7.98857045e-01 0.0
6.82764165e-01 7.37959183e-01 0.0
7.74828847e-01 7.09654533e-02 0.0
3.74864870e-01 1.40841460e-01 0.0
8.32186792e-01 6.11200847e-01 0.0
3.47517743e-01 5.40799062e-02 0.0
2.94807154e-01 3.45823372e-01 0.0
7.03475232e-01 6.31446137e-01 0.0
8.93872517e-01 4.60586809e-01 0.0
1.35464426e-01 7.01716836e-01 0.0
7.89329878e-01 5.58729024e-01 0.0
7.84570067e-01 5.08913325e-01 0.0
5.10016107e-01 3.85928344e-01 0.0
3.27296259e-02 1.09356307e-01 0.0
4.26926670e-02 6.31819968e-01 0.0
3.05633622e-01 5.49271193e-01 0.0
8.77730101e-01 2.64165296e-01 0.0
3.98738961e-01 7.48746786e-01 0.0
2.22372267e-01 6.06987959e-02 0.0
3.01326969e-01 1.89401846e-01 0.0
9.39222197e-01 8.10215354e-01 0.0
6.13414131e-01 8.81933744e-01 0.0
8.47369210e-01 1.78855511e-01 0.0
8.84939917e-01 5.27972107e-01 0.0
7.97522469e-01 8.40459450e-01 0.0
3.26211274e-01 9.29173165e-02 0.0
1.95304146e-01 4.42370731e-01 0.0
7.96088324e-01 8.53867658e-01 0.0
3.66687066e-02 4.82190389e-01 0.0
3.86353819e-01 2.27565139e-01 0.0
1.43159040e-01 3.05712080e-01 0.0
9.51171292e-01 3.34976539e-01 0.0
4.77062969e-01 7.19200110e-01 0.0
3.81393495e-01 9.65463935e-01 0.0
9.87825343e-01 2.74811887e-01 0.0
4.99338129e-01 2.91730040e-01 0.0
2.65126720e-01 3.61257454e-02 0.0
6.21110157e-01 4.96109773e-01 0.0
6.94771061e-03 3.04356191e-01 0.0
9.12120646e-01 2.31869028e-01 0.0
1.62264673e-01 5.20348648e-01 0.0
9.28871396e-01 2.50855364e-01 0.0
6.43225356e-01 7.71733791e-01 0.0
2.40229912e-01 7.41098966e-01 0.0
3.57666179e-01 5.94345743e-01 0.0
6.24403269e-01 5.44019208e-01 0.0
1.10866087e-01 8.11556037e-01 0.0
3.41592829e-01 1.73389767e-01 0.0
4.81199711e-02 5.80560248e-01 0.0
6.81255940e-01 3.46611946e-02 0.0
4.87228354e-01 2.12717890e-01 0.0
6.48920946e-01 2.23033082e-01 0.0
6.73445716e-01 4.28077437e-01 0.0
9.77348425e-01 1.35548992e-01 0.0
3.35024469e-01 9.94492348e-02 0.0
9.23311535e-01 8.48833027e-01 0.0
2.56396690e-01 6.90317428e-01 0.0
8.04838928e-01 5.50322678e-01 0.0
4.95177986e-01 2.49432435e-01 0.0
9.84623306e-02 8.98506648e-01 0.0
8.96024187e-01 6.27168894e-01 0.0
3.49200498e-01 3.48625623e-01 0.0
7.32338395e-01 9.01466758e-01 0.0
9.09852005e-01 7.93594425e-01 0.0
6.45939876e-01 1.14909877e-01 0.0
1.70145204e-01 9.24998475e-01 0.0
6.18728388e-01 1.00000000e-03 0.0
1.27913237e-01 6.66241035e-01 0.0
4.00875156e-03 1.66509407e-01 0.0
5.41742912e-01 6.96495801e-01 0.0
6.39967246e-01 2.50091673e-01 0.0
7.09877426e-01 2.29496255e-01 0.0
3.06656631e-01 7.51937985e-01 0.0
6.53424512e-01 8.57094602e-01 0.0
6.36796249e-01 5.35861626e-01 0.0
1.06352001e-01 3.97801180e-01 0.0
2.44403927e-01 2.76198718e-01 0.0
9.78763842e-01 3.92954599e-01 0.0
8.83990469e-01 6.03082198e-01 0.0
8.14827030e-01 4.86919895e-01 0.0
5.61101570e-01 5.12618486e-01 0.0
1.57085457e-01 6.91577319e-01 0.0
2.80404883e-01 3.02591996e-02 0.0
6.55295153e-01 1.70994914e-01 0.0
9.91735009e-01 9.49310471e-01 0.0
9.10187647e-01 3.54008243e-01 0.0
1.79675139e-02 9.40780383e-01 0.0
4.52573936e-01 9.36475366e-01 0.0
9.58635029e-01 8.62061636e-01 0.0
3.06345261e-01 3.85230433e-01 0.0
8.62128568e-01 3.00528837e-01 0.0
2.01062766e-01 5.76916276e-01 0.0
9.08900619e-01 6.74243478e-01 0.0
5.48845928e-01 1.10915149e-01 0.0
5.88972989e-01 9.83345840e-01 0.0
1.49298327e-01 5.16988839e-01 0.0
8.82619272e-01 7.19170765e-01 0.0
7.09070108e-01 6.90057713e-01 0.0
3.52912928e-01 2.98409335e-01 0.0
8.11449974e-01 8.10599335e-01 0.0
8.51861316e-01 9.07170363e-01 0.0
5.11386648e-01 4.73651017e-01 0.0
7.88922226e-01 6.57820031e-01 0.0
6.76080390e-01 8.19230103e-01 0.0
9.15733294e-01 3.12762927e-01 0.0
4.03094301e-01 9.10723450e-02 0.0
5.86761088e-01 2.58779379e-02 0.0
4.84302968e-01 5.50873887e-01 0.0
2.70042924e-01 5.67221140e-01 0.0
1.00000000e-03 4.11567162e-02 0.0
8.34201351e-01 3.73382071e-01 0.0
1.24669696e-01 4.98797420e-01 0.0
7.56171716e-01 2.39172682e-01 0.0
6.13069768e-01 8.82537373e-02 0.0
2.98843089e-02 5.38175285e-01 0.0
5.31360418e-01 6.58640907e-01 0.0
7.41767017e-01 9.65806896e-01 0.0
5.13733578e-01 3.11788433e-01 0.0
7.66422232e-01 2.53456694e-01 0.0
4.42988176e-01 8.50475701e-02 0.0
2.83609776e-02 9.56533975e-01 0.0
8.54888156e-01 6.97261845e-01 0.0
4.23203962e-01 1.37349830e-01 0.0
7.69519527e-02 2.55993692e-01 0.0
5.20354643e-01 7.10290716e-01 0.0
6.54075561e-01 3.12101619e-01 0.0
9.62970971e-01 7.41257950e-01 0.0
5.71315177e-01 6.19188129e-01 0.0
4.10325513e-01 2.69443807e-01 0.0
3.33484258e-01 7.64396521e-01 0.0
1.00000000e-03 1.20205441e-01 0.0
4.99134614e-02 7.47011572e-02 0.0
8.23747326e-01 6.91481241e-01 0.0
4.90844995e-01 1.04629164e-01 0.0
4.95269649e-01 4.54096254e-01 0.0
1.61229290e-01 4.59081659e-01 0.0
3.97460931e-01 6.23456537e-01 0.0
6.32759428e-01 2.13294910e-02 0.0
3.93535723e-01 6.36057618e-01 0.0
5.49858607e-01 8.35909693e-01 0.0
6.75362579e-01 1.36356775e-01 0.0
7.37572813e-02 6.62207599e-01 0.0
1.00000000e-03 5.81622748e-01 0.0
9.28817134e-01 5.61249434e-01 0.0
3.95976030e-01 6.65998243e-01 0.0
4.55552077e-01 5.49780849e-01 0.0
9.43781207e-01 3.86139185e-01 0.0
9.39115688e-01 9.27812607e-01 0.0
2.01773092e-01 7.73633376e-02 0.0
8.44345672e-02 8.91599955e-03 0.0
9.08737068e-02 6.51918656e-01 0.0
3.69816447e-02 3.06801834e-01 0.0
8.55463881e-01 1.00364980e-02 0.0
7.93823006e-01 2.65345658e-01 0.0
1.08937586e-01 6.89566426e-01 0.0
6.72825841e-01 8.98843268e-01 0.0
7.55837477e-01 8.27161511e-01 0.0
2.61794066e-01 1.52669058e-01 0.0
7.28184689e-01 8.33877706e-01 0.0
9.79416628e-01 3.87259694e-01 0.0
3.63284206e-01 7.71577763e-01 0.0
3.46242774e-01 9.35842698e-01 0.0
8.41630169e-01 4.42888443e-01 0.0
7.37918194e-01 7.51376028e-01 0.0
1.17040934e-01 8.89546781e-01 0.0
4.93714807e-01 8.38447264e-01 0.0
3.02668152e-01 8.87725649e-01 0.0
4.00463461e-01 5.24626035e-02 0.0
9.17650136e-01 1.00864438e-01 0.0
3.30070014e-01 9.28314409e-01 0.0
9.52949646e-01 5.72834688e-01 0.0
6.38353930e-01 4.50806488e-01 0.0
3.00905158e-01 3.22352849e-01 0.0
6.73706131e-01 7.27493320e-01 0.0
7.85096314e-01 8.17802551e-01 0.0
9.76665630e-02 4.93996352e-01 0.0
9.59825616e-02 5.21952377e-01 0.0
4.19048050e-01 9.22411253e-01 0.0
3.51846383e-01 1.12151217e-01 0.0
1.18690525e-01 7.70582928e-01 0.0
6.29251216e-01 7.89434040e-02 0.0
8.12642055e-02 6.94170104e-01 0.0
7.79502298e-02 7.99179124e-01 0.0
7.31612192e-01 9.99074006e-02 0.0
7.74781791e-02 9.82253983e-01 0.0
3.71506283e-01 3.54870191e-01 0.0
8.03813736e-01 9.41771710e-01 0.0
9.99000000e-01 7.72560838e-01 0.0
3.95199803e-01 9.09970375e-02 0.0
7.54504954e-01 5.57563457e-01 0.0
4.43888376e-01 8.80856407e-01 0.0
1.24096851e-01 5.39691388e-01 0.0
3.28707226e-02 4.97315095e-01 0.0
6.07277796e-02 1.38432477e-01 0.0
1.02979382e-01 6.65338005e-01 0.0
7.59305663e-01 5.89243641e-01 0.0
9.88840650e-01 3.63952428e-01 0.0
2.81921478e-01 8.70533609e-01 0.0
2.02731389e-01 9.67821179e-01 0.0
1.00000000e-03 9.91094733e-01 0.0
4.41049902e-02 8.80587531e-01 0.0
5.10793028e-01 9.88211193e-01 0.0
8.77437352e-02 5.64953886e-01 0.0
9.55005232e-01 5.05953357e-01 0.0
6.42710297e-01 6.81110752e-01 0.0
4.55755100e-01 6.30065894e-01 0.0
5.90638064e-01 9.18550346e-01 0.0
1.98531935e-02 2.42234691e-01 0.0
9.38912505e-01 9.26770677e-01 0.0
4.96634899e-01 6.57240305e-01 0.0
2.73470531e-01 1.52007666e-01 0.0
4.16218122e-01 3.40909113e-01 0.0
5.79642268e-01 1.04091031e-01 0.0
9.91980365e-01 9.90818972e-01 0.0
6.80129543e-01 5.16626745e-01 0.0
3.14677362e-01 8.27920340e-01 0.0
6.92672411e-01 1.41651432e-01 0.0
9.24112574e-01 8.31168073e-01 0.0
9.28103500e-01 7.09825714e-01 0.0
6.27367154e-01 4.13490882e-01 0.0
9.64931601e-01 8.76218974e-01 0.0
3.53573808e-02 2.61601641e-02 0.0
3.77747793e-01 7.95792938e-01 0.0
9.68783077e-01 1.64630137e-01 0.0
6.11259672e-01 3.93126126e-01 0.0
9.99000000e-01 8.31140213e-01 0.0
8.72256798e-01 4.50436533e-01 0.0
3.94298036e-01 2.37742560e-01 0.0
4.73417218e-02 8.54514745e-01 0.0
8.23558813e-01 9.99000000e-01 0.0
9.72461947e-01 5.47473344e-01 0.0
7.61459960e-01 9.08776514e-01 0.0
8.29769093e-01 2.31728026e-01 0.0
4.79595687e-01 1.33039049e-01 0.0
9.67469480e-01 5.75805684e-01 0.0
2.52842846e-01 6.98066738e-01 0.0
5.77632978e-01 3.43869897e-01 0.0
1.23603984e-01 6.84631341e-01 0.0
5.06558412e-01 7.66127628e-01 0.0
5.08057932e-01 8.54419056e-01 0.0
5.76166944e-01 5.45313264e-01 0.0
8.96934630e-01 3.87642750e-01 0.0
1.16838571e-01 4.53710056e-02 0.0
7.73819744e-01 6.37562863e-01 0.0
6.77415922e-01 2.03521944e-01 0.0
1.53048846e-01 1.53864862e-02 0.0
3.28829817e-01 5.99205225e-01 0.0
3.77758904e-01 4.73839892e-01 0.0
9.35463981e-01 3.60497139e-01 0.0
5.41569474e-01 7.84965971e-01 0.0
4.12053914e-01 6.52031816e-01 0.0
8.67338592e-01 9.44349409e-01 0.0
1.12530339e-01 9.24902974e-01 0.0
5.08802470e-01 2.77407083e-01 0.0
4.69356412e-01 9.69063474e-01 0.0
[...]
CELL_DATA 14913
SCALARS z float 1
LOOKUP_TABLE default
2.15643455e+00
2.54472976e+00
2.30133414e+00
2.05091375e+00
2.05091375e+00
2.00706180e+00
1.91718330e+00
3.06409971e+00
1.98763374e+00
2.84256947e+00
2.08550565e+00
2.16420667e+00
1.99546588e+00
2.16420667e+00
2.51000503e+00
1.91718330e+00
2.36896201e+00
2.31988003e+00
2.13088432e+00
2.73566574e+00
1.95492431e+00
1.95492431e+00
2.28880495e+00
2.02433305e+00
2.02433305e+00
2.07392979e+00
2.34673543e+00
2.34673543e+00
1.96195440e+00
2.32058455e+00
2.08128494e+00
2.08198720e+00
2.08198720e+00
2.16456048e+00
2.64329865e+00
1.96170706e+00
1.89548838e+00
1.89548838e+00
2.52424576e+00
2.29696142e+00
2.11520841e+00
2.44956484e+00
2.07322259e+00
2.23751073e+00
2.26978171e+00
1.91880014e+00
2.31368001e+00
1.94552685e+00
1.94552685e+00
1.93146883e+00
2.34871125e+00
1.99605137e+00
2.92100893e+00
2.02736399e+00
2.01188099e+00
8.49023357e+00
2.40037950e+00
1.99847463e+00
1.99016788e+00
2.18035533e+00
2.01198258e+00
1.96552594e+00
2.33144451e+00
1.90750489e+00
2.03538472e+00
4.16341938e+00
2.00706180e+00
2.69744587e+00
1.90394719e+00
2.00894232e+00
2.31504391e+00
2.15516123e+00
2.31504391e+00
1.89108944e+00
1.89108944e+00
2.51711939e+00
1.94543940e+00
1.89876930e+00
1.89956917e+00
2.05324405e+00
1.97328480e+00
2.09509809e+00
2.08972239e+00
2.08972239e+00
2.21566181e+00
2.76759356e+00
2.05764590e+00
1.95926297e+00
1.95926297e+00
1.91093860e+00
2.04564914e+00
2.03098996e+00
2.07703121e+00
2.21461160e+00
2.21461160e+00
2.45847909e+00
2.22858360e+00
1.98421241e+00
3.13075904e+00
1.98421241e+00
2.25742142e+00
2.11919731e+00
1.97998691e+00
2.00698793e+00
2.07740410e+00
2.60685499e+00
2.23860242e+00
2.07357822e+00
2.25617443e+00
1.92922245e+00
2.45806583e+00
1.92922245e+00
1.93069319e+00
2.85966864e+00
1.96195440e+00
2.85966864e+00
1.93805748e+00
2.12250788e+00
2.07797060e+00
1.90749938e+00
2.05872915e+00
1.89226613e+00
1.92271231e+00
1.92271231e+00
2.33803304e+00
2.89188113e+00
2.49309059e+00
1.96170706e+00
2.70571801e+00
1.94318773e+00
6.58786804e+00
1.98410413e+00
1.98410413e+00
6.83019640e+00
1.95701162e+00
2.10854194e+00
1.94073971e+00
1.89534449e+00
1.90065390e+00
1.97232371e+00
2.03986529e+00
2.03986529e+00
2.74789359e+00
2.18646232e+00
2.73331576e+00
2.00838838e+00
2.02452718e+00
2.31234956e+00
2.18375741e+00
1.98103267e+00
2.03339726e+00
1.89637252e+00
2.12824768e+00
2.01664530e+00
1.95553149e+00
1.90580164e+00
2.16335316e+00
2.04312765e+00
1.92948009e+00
2.17281695e+00
2.02194709e+00
2.07322259e+00
1.91880014e+00
2.08126248e+00
1.91313773e+00
2.10133674e+00
2.00306556e+00
2.00760358e+00
1.96047535e+00
1.97191961e+00
2.15639133e+00
1.99605137e+00
2.13146468e+00
2.09011424e+00
2.09011424e+00
1.91715148e+00
2.09676268e+00
2.02194709e+00
2.03600399e+00
2.65616027e+00
2.01407026e+00
2.09014754e+00
2.23573244e+00
2.02742128e+00
2.12607376e+00
2.21357296e+00
2.35694058e+00
1.96800193e+00
2.11978250e+00
1.94302362e+00
1.92530150e+00
3.51738379e+00
1.89804885e+00
2.35996808e+00
1.96129881e+00
2.04547879e+00
2.08631782e+00
2.07826818e+00
2.15564527e+00
2.04173682e+00
1.89155141e+00
1.89155141e+00
8.23721875e+00
3.92090345e+00
2.23264902e+00
3.44594777e+00
1.89203314e+00
2.01231215e+00
2.42339020e+00
3.43540371e+00
2.40922948e+00
2.01198258e+00
2.16967417e+00
2.16967417e+00
1.95891340e+00
1.90959774e+00
2.02186227e+00
2.05818705e+00
1.89811382e+00
2.28863877e+00
1.94685856e+00
2.05866496e+00
2.16982737e+00
1.93246602e+00
2.22248378e+00
2.08607078e+00
2.18531650e+00
2.18163781e+00
2.18163781e+00
2.36284371e+00
2.18347122e+00
2.18347122e+00
7.06512136e+00
2.28929694e+00
2.28929694e+00
3.15752245e+00
2.90987413e+00
2.99060165e+00
2.90987413e+00
2.29150891e+00
1.97331360e+00
2.66097454e+00
1.90394719e+00
2.54727240e+00
1.95496686e+00
2.09731581e+00
2.61607805e+00
2.31916587e+00
2.31683986e+00
2.04171106e+00
2.00636819e+00
2.71167644e+00
2.25465641e+00
1.98014375e+00
2.32279599e+00
2.40730180e+00
2.01011068e+00
1.97542126e+00
2.21043005e+00
2.25465641e+00
2.25499363e+00
1.94543940e+00
2.01856022e+00
2.01295177e+00
2.11153220e+00
2.01295177e+00
2.33213490e+00
2.65066561e+00
2.04761025e+00
1.96404951e+00
1.96404951e+00
2.16522627e+00
2.24570679e+00
2.04761025e+00
2.10720385e+00
2.10370332e+00
3.51293897e+00
2.05764590e+00
2.26486400e+00
4.43846899e+00
4.74644027e+00
2.90027066e+00
2.52512565e+00
2.21566181e+00
1.91296584e+00
2.45807045e+00
2.13959280e+00
2.27942480e+00
2.04564914e+00
2.27942480e+00
2.02823407e+00
2.42457127e+00
1.93189023e+00
3.08490531e+00
1.97328480e+00
2.43648917e+00
1.89243523e+00
1.89243523e+00
2.08018131e+00
2.24463471e+00
2.03402169e+00
2.07065101e+00
2.35779601e+00
2.07065101e+00
1.96455407e+00
2.10196484e+00
2.03098996e+00
2.00074333e+00
2.00074333e+00
2.35532456e+00
2.24666576e+00
2.29338566e+00
2.34723934e+00
2.11884442e+00
1.97998691e+00
2.14817664e+00
1.97733764e+00
1.97733764e+00
2.03420833e+00
2.06517156e+00
2.05290367e+00
2.03420833e+00
1.93666834e+00
1.93666834e+00
2.38307380e+00
1.98408583e+00
1.94457500e+00
2.18263839e+00
1.98367386e+00
1.98367386e+00
1.92056555e+00
1.94131899e+00
2.36983566e+00
2.36983566e+00
1.95208310e+00
1.89149000e+00
2.02662878e+00
1.96853564e+00
2.02519806e+00
2.00227936e+00
2.29008587e+00
1.93066974e+00
2.08078234e+00
2.00647080e+00
2.10603103e+00
3.29032122e+00
1.90236721e+00
2.28573927e+00
2.02344304e+00
2.28040859e+00
1.91436847e+00
1.91436847e+00
1.93162495e+00
1.99764473e+00
2.29693559e+00
3.28695649e+00
1.98155065e+00
1.99707673e+00
2.08123912e+00
1.91475457e+00
1.91171189e+00
2.10573502e+00
1.91171189e+00
1.94608058e+00
1.98283628e+00
2.25881601e+00
1.95356169e+00
2.24217928e+01
4.31039393e+00
1.99604619e+00
1.93805748e+00
1.95182277e+00
2.47249815e+00
2.00748603e+00
1.98357178e+00
1.98357178e+00
2.04511136e+00
2.41527145e+00
2.41527145e+00
1.92553376e+00
1.92553376e+00
2.02267111e+00
2.02267111e+00
2.11727722e+00
1.95182277e+00
2.23311746e+00
2.09318551e+00
1.99757948e+00
1.99757948e+00
2.21637296e+00
2.28892680e+00
2.26338243e+00
2.30030470e+00
2.17681859e+00
1.96088886e+00
1.99269965e+00
2.03210194e+00
2.57530237e+00
2.02029951e+00
2.64623362e+00
2.03867929e+00
3.87592421e+00
2.46088594e+00
2.32727642e+00
2.46088594e+00
2.28775797e+00
2.42095151e+00
2.79822171e+00
1.89254239e+00
2.05918508e+00
1.97342803e+00
1.90719033e+00
1.90719033e+00
1.95512856e+00
2.23240244e+00
2.17443592e+00
1.95189368e+00
1.95189368e+00
2.04332833e+00
2.44772491e+00
2.49300239e+00
2.12538046e+00
2.11845161e+00
2.04778391e+00
2.15086591e+00
2.11641400e+00
1.99465007e+00
1.90503518e+00
1.89534449e+00
2.02752188e+00
2.04711567e+00
2.25899675e+00
2.01907338e+00
2.18933404e+00
1.97417268e+00
1.99357735e+00
1.89408558e+00
1.89408558e+00
2.14112001e+00
1.90199186e+00
2.25247908e+00
2.25247908e+00
1.98103267e+00
2.00981876e+00
1.99952665e+00
1.90050051e+00
2.03339726e+00
1.99772106e+00
1.89139985e+00
2.10717925e+00
1.90580164e+00
2.15250411e+00
2.04312765e+00
2.40513398e+00
1.97417268e+00
2.04518237e+00
1.98735801e+00
2.05083723e+00
2.07503488e+00
1.96598075e+00
1.96598075e+00
2.02127000e+00
1.91412489e+00
1.94108931e+00
1.99195305e+00
1.99195305e+00
3.22283352e+00
2.09977659e+00
2.19054662e+00
2.09977659e+00
2.08126248e+00
2.02810122e+00
2.04679981e+00
1.98941425e+00
2.02810122e+00
2.49167866e+00
1.91412489e+00
2.06199395e+00
1.90054843e+00
2.56379640e+00
2.26109354e+00
2.02320313e+00
1.94024620e+00
1.92157684e+00
1.92059386e+00
1.90942664e+00
1.90942664e+00
1.90054843e+00
1.93039312e+00
1.95185008e+00
2.01426247e+00
1.89105801e+00
1.95172297e+00
2.27311559e+00
1.89255034e+00
1.95083140e+00
1.99743231e+00
2.12760063e+00
2.12760063e+00
1.89255034e+00
1.97013770e+00
3.72250448e+00
2.47742230e+00
1.99743231e+00
2.17620020e+00
2.62733890e+00
2.35981153e+00
2.16584409e+00
2.01171435e+00
2.01626291e+00
2.01171435e+00
2.13146468e+00
1.96750612e+00
1.95367542e+00
1.95367542e+00
2.68739381e+00
1.96750612e+00
2.46774555e+00
1.97322656e+00
1.97322656e+00
2.29803234e+00
2.29803234e+00
1.98936251e+00
1.98936251e+00
1.97069620e+00
3.10937437e+00
2.37935135e+00
2.19526807e+00
2.07245948e+00
2.43531595e+00
3.11722627e+00
2.92064935e+00
2.15489557e+00
2.11210226e+00
2.11210226e+00
1.97936093e+00
1.93952192e+00
1.99917545e+00
1.99917545e+00
2.32524990e+00
2.09014754e+00
2.01188099e+00
2.28881243e+00
1.91946373e+00
2.00505417e+00
2.00505417e+00
3.47207260e+00
1.93122619e+00
1.99016788e+00
2.12487827e+00
2.03323185e+00
2.25555752e+00
1.93122619e+00
2.52599841e+00
2.41952139e+00
2.95427889e+00
3.05718238e+00
2.23546726e+00
3.35362334e+00
2.09277875e+00
2.03752692e+00
2.29913838e+00
1.90009506e+00
2.48050052e+00
1.96630901e+00
1.92882948e+00
2.03323185e+00
2.03752692e+00
2.09346152e+00
2.11978250e+00
1.98980291e+00
1.91765093e+00
1.98201184e+00
1.94146181e+00
2.04868490e+00
2.16464376e+00
2.09410080e+00
2.04829320e+00
2.18351355e+00
2.17290867e+00
2.00230093e+00
2.02315190e+00
2.08693411e+00
2.23318932e+00
1.93626020e+00
3.20459027e+00
1.97275577e+00
1.89726837e+00
2.23575912e+00
1.98233300e+00
1.91806984e+00
1.91806984e+00
2.07003431e+00
2.01900902e+00
2.14949493e+00
2.12397433e+00
2.19412112e+00
1.89501089e+00
1.89501089e+00
2.45854345e+00
1.96909669e+00
2.33922042e+00
2.25239462e+00
1.94130182e+00
2.15640492e+00
2.14884777e+00
2.10836826e+00
2.23727265e+00
2.23319499e+00
2.12332938e+00
1.96129881e+00
2.12240914e+00
2.01968398e+00
1.89668744e+00
1.98833698e+00
4.26130393e+00
2.12925979e+00
2.10701034e+00
2.04173682e+00
1.92355250e+00
1.90491575e+00
1.95912221e+00
1.93016449e+00
2.10758145e+00
1.90312493e+00
5.65840069e+00
1.90385185e+00
1.91411087e+00
1.92918728e+00
1.94670368e+00
1.96400259e+00
1.96162001e+00
1.96162001e+00
1.96523515e+00
1.92206235e+00
2.05331859e+00
1.90959774e+00
2.11408401e+00
1.92913583e+00
1.96092557e+00
1.96977799e+00
1.89482838e+00
1.96256644e+00
1.89199377e+00
2.05246360e+00
2.05246360e+00
2.00644896e+00
2.70579594e+00
1.89811382e+00
2.02683430e+00
1.96256644e+00
2.16982737e+00
1.98717485e+00
2.28863877e+00
2.46945091e+00
2.12168720e+00
2.02163297e+00
2.29548791e+00
2.51541043e+00
2.18975864e+00
1.89726837e+00
2.09762536e+00
2.07420341e+00
2.72908266e+00
2.97809631e+00
2.06954029e+00
1.93246602e+00
2.09041320e+00
1.93427678e+00
1.94001145e+00
2.35481108e+00
2.00323829e+00
2.01810122e+00
2.18540798e+00
2.11133431e+00
2.06791768e+00
2.01442490e+00
3.25592671e+00
1.99911708e+00
1.91121044e+00
2.06215102e+00
2.53314952e+00
2.53314952e+00
2.11294699e+00
2.03140081e+00
2.26838523e+00
2.12706165e+00
2.05042305e+00
2.12706165e+00
1.89156182e+00
1.89156182e+00
1.89928214e+00
2.19123499e+00
2.23531982e+00
1.94232944e+00
2.03538472e+00
1.94877875e+00
2.26885375e+00
2.29150891e+00
2.19989534e+00
2.29301313e+00
2.15735816e+00
2.80272917e+00
1.96572646e+00
2.03767374e+00
2.03767374e+00
2.29732022e+00
1.96572646e+00
2.20773182e+00
2.34160930e+00
2.20773182e+00
1.98014375e+00
2.03910116e+00
2.07583872e+00
1.90128140e+00
1.89956917e+00
2.60502753e+00
2.01300038e+00
2.18208654e+00
2.01300038e+00
2.59678402e+00
2.29386628e+00
2.61908008e+00
2.44335373e+00
2.23269809e+00
2.05518884e+00
2.23269809e+00
1.94672060e+00
1.94672060e+00
2.21581821e+00
1.96285211e+00
2.11642532e+00
1.92270142e+00
1.93034721e+00
2.03826601e+00
2.06045669e+00
2.08630849e+00
1.90806894e+00
2.03826601e+00
2.32027413e+00
2.62384256e+00
1.95964978e+00
1.95964978e+00
1.89910961e+00
1.96436833e+00
1.91526434e+00
2.02712655e+00
2.48863726e+00
2.10370332e+00
3.49084944e+00
2.43941933e+00
1.96896694e+00
1.98845641e+00
2.27447514e+00
2.26517484e+00
2.01945428e+00
2.32213402e+00
2.32213402e+00
2.40906122e+00
2.03125573e+00
2.20208205e+00
2.00976671e+00
2.00976671e+00
2.10518312e+00
2.37166646e+00
1.98538774e+00
1.92940022e+00
1.97979259e+00
2.55687463e+00
1.98172948e+00
2.17433212e+00
2.91370736e+00
1.97875030e+00
1.89319630e+00
1.89319630e+00
2.43345323e+00
2.33074291e+00
2.38497905e+00
2.38497905e+00
2.49804586e+00
2.06889198e+00
2.38578790e+00
1.89787793e+00
2.42976636e+00
2.07409126e+00
2.02823407e+00
1.97875030e+00
2.10196484e+00
2.11883559e+00
1.93050038e+00
2.04025487e+00
1.94654311e+00
1.94654311e+00
2.23091481e+00
2.23091481e+00
2.62550998e+00
1.91089337e+00
1.96353482e+00
1.94654203e+00
2.33114834e+00
1.89380492e+00
1.94654203e+00
2.27755306e+00
2.07573068e+00
2.07737587e+00
2.07737587e+00
1.99050781e+00
1.99050781e+00
6.51333931e+00
2.01415073e+00
2.01446573e+00
5.31188550e+00
2.94404591e+00
2.03249026e+00
2.52603909e+00
2.29338566e+00
2.50875210e+00
2.03256744e+00
1.89213057e+00
1.89213057e+00
1.92128750e+00
1.92128750e+00
1.88962625e+00
2.26940539e+00
2.29513150e+00
2.23944461e+00
2.05290367e+00
3.45898774e+00
2.17076152e+00
2.01761813e+00
1.93544113e+00
1.93544113e+00
2.20117138e+00
2.21337185e+00
1.91833476e+00
2.18815080e+00
2.06910289e+00
1.96192986e+00
1.96192986e+00
2.00141635e+00
2.07276873e+00
2.00141635e+00
2.18779531e+00
1.91833476e+00
2.05566427e+00
2.05773930e+00
1.93336858e+00
1.93336858e+00
2.11325447e+00
2.88214254e+00
1.97289483e+00
1.97289483e+00
4.65466498e+00
2.18718869e+00
2.04738962e+00
1.98573786e+00
2.33191412e+00
2.23609961e+00
1.95208310e+00
2.17624301e+00
2.02967979e+00
2.19390815e+00
2.49427557e+00
2.01613835e+00
2.10312301e+00
2.10312301e+00
1.96988280e+00
1.95562236e+00
1.96853564e+00
1.96231407e+00
1.96231407e+00
2.01383921e+00
1.99803413e+00
1.99803413e+00
2.00842038e+00
1.89979006e+00
2.46007834e+00
2.52968217e+00
2.10065919e+00
2.10065919e+00
1.98369210e+00
1.98369210e+00
2.16154505e+00
1.95514726e+00
1.94658347e+00
2.08356831e+00
2.00647080e+00
2.01592816e+00
2.01592816e+00
2.09483509e+00
2.09483509e+00
1.98579696e+00
2.20535789e+00
2.11936843e+00
1.95271880e+00
1.94455909e+00
1.91287622e+00
1.92312686e+00
2.44625667e+00
2.34458253e+00
1.97218172e+00
2.04515151e+00
2.11723276e+00
2.35604552e+00
2.11723276e+00
2.16360914e+00
1.91868240e+00
2.15286495e+00
2.22077791e+00
1.96785064e+00
1.97212195e+00
1.97988423e+00
1.98654604e+00
1.98654604e+00
2.20053550e+00
1.96452401e+00
1.96452401e+00
2.34066302e+00
1.90236721e+00
2.02344304e+00
1.99574389e+00
1.99574389e+00
2.10751938e+00
2.10136493e+00
1.97591223e+00
2.00640467e+00
1.93962933e+00
1.99707673e+00
2.01956576e+00
1.89918249e+00
1.89918249e+00
1.92771989e+00
2.17949841e+00
2.65422762e+00
1.94364659e+00
2.43528048e+00
1.92543206e+00
1.90908856e+00
1.90908856e+00
1.90719428e+00
2.00015009e+00
2.34646910e+00
1.89340493e+00
1.94696856e+00
2.16986828e+00
2.05024879e+00
2.11247845e+00
2.46629232e+00
2.42632430e+00
2.58681239e+00
1.94916147e+00
2.09900555e+00
2.24095641e+00
2.08448128e+00
1.92895894e+00
2.35736847e+00
2.02887331e+00
2.07186898e+00
2.11580180e+00
1.95618979e+00
2.20678732e+00
2.41823233e+00
2.25354675e+00
2.10260923e+00
2.10260923e+00
2.85627045e+00
2.15442211e+00
2.05960688e+00
2.05960688e+00
1.93314661e+00
1.93314661e+00
2.19245680e+00
1.99604619e+00
1.90157679e+00
1.90157679e+00
2.23241848e+00
2.70954871e+00
2.70954871e+00
2.71120263e+00
2.08128494e+00
2.00748603e+00
2.03236104e+00
2.03236104e+00
2.07303835e+00
2.07303835e+00
2.23944495e+00
2.50434306e+00
2.66673164e+00
1.95617177e+00
2.73578587e+00
1.95617177e+00
2.01729739e+00
2.06290749e+00
2.46963236e+00
2.18521879e+00
2.18521879e+00
2.04511136e+00
2.68960465e+00
1.90749938e+00
2.04679773e+00
2.04539849e+00
2.13467052e+00
2.13276091e+00
2.14422551e+00
1.94325592e+00
2.32271671e+00
2.03554307e+00
1.91230026e+00
1.91230026e+00
2.03554307e+00
2.05357742e+00
2.39099255e+00
1.99980761e+00
1.93450153e+00
1.99980761e+00
2.01677087e+00
1.93236772e+00
2.01677087e+00
2.09318551e+00
1.98272707e+00
2.34324389e+00
1.89758717e+00
1.95275373e+00
1.95275373e+00
1.89287119e+00
1.94462909e+00
1.89948084e+00
2.18499884e+00
1.89948084e+00
2.10111672e+00
1.91771269e+00
1.93654377e+00
2.06868690e+00
1.98026787e+00
2.01978970e+00
2.01265539e+00
2.30030470e+00
2.33687649e+00
1.99575156e+00
1.99575156e+00
2.21243765e+00
2.34453677e+00
2.13347752e+00
1.93922206e+00
1.90293252e+00
1.96427421e+00
2.73048965e+00
5.43088646e+00
2.60074885e+00
2.23694028e+00
2.07303002e+00
1.97794875e+00
1.97794875e+00
2.03435765e+00
1.92429189e+00
1.92429189e+00
2.79761857e+00
2.24844111e+00
2.02014230e+00
2.21471393e+00
2.24844111e+00
1.96894020e+00
1.95073447e+00
2.09480317e+00
1.94083805e+00
1.89254239e+00
2.44831593e+00
2.01117586e+00
2.11068547e+00
1.89972185e+00
2.01117586e+00
1.98166955e+00
2.07761276e+00
2.07761276e+00
1.97300343e+00
2.20840876e+00
1.92880143e+00
2.30609979e+00
2.07977892e+00
1.90578567e+00
1.91893600e+00
1.96854882e+00
1.96854882e+00
1.90878574e+00
2.01371276e+00
2.00788399e+00
1.94294097e+00
1.91979827e+00
1.91979827e+00
2.26971015e+00
2.22698708e+00
2.20471684e+00
1.90629623e+00
1.95512856e+00
2.11785110e+00
2.04497730e+00
2.13862315e+00
1.97869533e+00
2.13862315e+00
2.12249316e+00
2.00049600e+00
1.96502152e+00
2.19933718e+00
1.90422417e+00
2.28507946e+00
2.18064422e+00
1.92644904e+00
2.13114037e+00
1.93631126e+00
1.92644904e+00
1.89695709e+00
2.41741129e+00
1.94862873e+00
1.89549390e+00
1.89442696e+00
1.93941214e+00
1.93941214e+00
2.07781490e+00
1.90562334e+00
2.13451482e+00
1.97159919e+00
2.16241779e+00
2.14657443e+00
2.01200970e+00
2.04632338e+00
1.93686241e+00
1.98961589e+00
1.98961589e+00
1.98764236e+00
1.98764236e+00
2.54603701e+00
1.93207625e+00
2.59795804e+00
2.17560709e+00
1.92235894e+00
2.14501766e+00
2.06977436e+00
2.13979272e+00
2.06977436e+00
1.91525123e+00
1.91525123e+00
2.24809607e+00
2.12538046e+00
1.94087249e+00
1.97664622e+00
1.94087249e+00
2.88632377e+00
2.04701697e+00
2.35969299e+00
2.44057734e+00
2.03116886e+00
1.93146883e+00
2.35696023e+00
1.90503518e+00
2.19493202e+00
1.89792688e+00
1.91913711e+00
1.91913711e+00
2.03161867e+00
2.03161867e+00
2.25421755e+00
2.12096338e+00
1.89405930e+00
1.94710015e+00
1.89405930e+00
2.13233981e+00
1.90348007e+00
1.90348007e+00
2.10119146e+00
2.13648143e+00
2.10119146e+00
1.92267594e+00
1.98735468e+00
1.96923891e+00
2.09246413e+00
2.09246413e+00
1.91871194e+00
1.91871194e+00
2.22635288e+00
2.64375848e+00
1.90931685e+00
1.90931685e+00
2.39205068e+00
2.00838838e+00
2.12565870e+00
1.96452687e+00
2.02749692e+00
2.02749692e+00
2.21877822e+00
2.02677654e+00
2.08820537e+00
1.97469488e+00
1.92602751e+00
2.04003588e+00
2.32264361e+00
2.64814184e+00
1.96083619e+00
3.24549508e+00
2.14265014e+00
2.62496911e+00
1.90050051e+00
1.88899314e+00
1.93086096e+00
1.88899314e+00
2.11268582e+00
2.17426336e+00
2.08615585e+00
2.09703304e+00
2.26603606e+00
1.99952665e+00
2.15978506e+00
2.14265014e+00
2.26464939e+00
2.15040135e+00
2.08615585e+00
2.47498606e+00
2.47498606e+00
1.89950637e+00
1.89950637e+00
1.92607616e+00
2.23969336e+00
1.89139985e+00
1.92068099e+00
1.89637252e+00
1.98840374e+00
1.95816708e+00
1.99283530e+00
1.99283530e+00
1.98840374e+00
1.99748344e+00
2.00844395e+00
2.01011622e+00
2.01011622e+00
1.93126805e+00
2.40931664e+00
1.93126805e+00
1.91313773e+00
1.89100096e+00
2.50304440e+00
2.38496336e+00
2.51888666e+00
2.05083723e+00
2.25838317e+00
2.07369197e+00
2.30675666e+00
2.08549990e+00
2.00456574e+00
2.04348366e+00
2.10528104e+00
2.07369197e+00
2.02891263e+00
1.89443952e+00
1.89792688e+00
2.44392264e+00
2.44392264e+00
1.92059386e+00
1.93831639e+00
1.92037750e+00
2.02452718e+00
1.93039312e+00
1.93831639e+00
2.92313649e+00
2.02320313e+00
2.19516821e+00
2.34975877e+00
1.99715891e+00
1.99715891e+00
2.10740809e+00
1.99811663e+00
1.99811663e+00
2.10341035e+00
1.92795058e+00
2.18564584e+00
1.95784881e+00
2.04969563e+00
1.96005703e+00
2.42993504e+00
1.98162685e+00
1.98192213e+00
2.20400417e+00
1.98162685e+00
2.13190996e+00
2.02418275e+00
1.96732400e+00
1.96732400e+00
2.03224187e+00
2.61493846e+00
1.93206018e+00
1.93206018e+00
2.11126002e+00
1.89100096e+00
1.95083140e+00
1.94630068e+00
2.16391599e+00
1.95172297e+00
2.34476066e+00
2.05692740e+00
2.05692740e+00
2.33502872e+00
2.38617384e+00
2.01003080e+00
2.32311173e+00
2.16584409e+00
2.02289604e+00
2.37571733e+00
2.07438452e+00
1.91182470e+00
1.99128968e+00
2.09710722e+00
1.97069620e+00
2.03206845e+00
2.04178155e+00
2.13743157e+00
2.13743157e+00
2.29786583e+00
2.50638116e+00
2.03206845e+00
2.04009746e+00
2.34115376e+00
2.04280166e+00
2.04280166e+00
3.06400521e+00
2.08793615e+00
2.08793615e+00
2.00782410e+00
2.31807351e+00
2.00782410e+00
2.23814232e+00
1.96132130e+00