# vtk DataFile Version 2.0
z-phase-transition mesh
ASCII
DATASET UNSTRUCTURED_GRID

POINTS 8640 float
2.06866288e-01 2.00000000e-03 0.0
2.00000000e-03 2.00000000e-03 0.0
4.05877761e-02 2.00000000e-03 0.0
2.00000000e-03 4.18081139e-02 0.0
2.00000000e-03 3.20059887e-01 0.0
1.14813256e-01 2.00000000e-03 0.0
1.09328297e-01 2.00000000e-03 0.0
1.52261805e-01 3.57191133e-01 0.0
6.03120658e-02 3.35112582e-01 0.0
1.38918931e-01 1.47454544e-01 0.0
1.33826575e-01 5.80943271e-02 0.0
7.22553734e-02 1.92010114e-01 0.0
2.08143860e-01 2.00000000e-03 0.0
1.50268793e-01 3.99024243e-01 0.0
1.35270450e-01 2.00000000e-03 0.0
1.38485056e-01 2.00000000e-03 0.0
4.23021412e-01 9.83802263e-02 0.0
2.00000000e-03 7.19534949e-03 0.0
1.71864565e-02 2.00000000e-03 0.0
2.10583153e-01 4.01265254e-01 0.0
2.00000000e-03 2.00000000e-03 0.0
4.72421493e-01 2.27501554e-01 0.0
6.03584797e-01 7.05559659e-02 0.0
2.54304320e-01 2.00000000e-03 0.0
4.36840427e-01 2.00000000e-03 0.0
1.91594944e-01 2.00000000e-03 0.0
7.27210437e-02 2.00000000e-03 0.0
1.67972910e-01 2.00000000e-03 0.0
2.16211429e-01 2.00000000e-03 0.0
4.20272942e-01 2.00000000e-03 0.0
2.11890638e-01 2.00000000e-03 0.0
2.00000000e-03 4.88423271e-03 0.0
2.13757458e-01 2.00000000e-03 0.0
3.71316688e-01 2.00000000e-03 0.0
4.48551876e-01 4.17047539e-01 0.0
2.19337043e-01 2.00000000e-03 0.0
1.42945281e-01 1.34781816e-01 0.0
1.37970347e-01 2.00000000e-03 0.0
3.15749486e-01 2.00000000e-03 0.0
4.22241355e-01 1.67764136e-01 0.0
2.91979580e-01 2.00000000e-03 0.0
2.62808018e-01 3.91951117e-02 0.0
5.21376714e-01 2.00000000e-03 0.0
2.32712918e-01 2.00000000e-03 0.0
2.26068593e-01 2.00000000e-03 0.0
7.35576502e-01 2.00000000e-03 0.0
6.02550150e-01 1.66885770e-01 0.0
2.81041230e-01 2.00000000e-03 0.0
5.59588479e-01 2.00000000e-03 0.0
6.32295513e-01 3.49107164e-01 0.0
1.55036843e-01 2.00000000e-03 0.0
1.18117559e-01 2.31342775e-01 0.0
3.64168929e-01 2.00000000e-03 0.0
3.64225385e-01 2.00000000e-03 0.0
4.27594706e-01 2.00000000e-03 0.0
5.97672616e-01 9.60952651e-02 0.0
7.34884361e-01 2.00000000e-03 0.0
6.24537065e-01 5.09014345e-01 0.0
7.67056299e-01 8.84144831e-02 0.0
8.79691409e-01 2.00000000e-03 0.0
5.82018493e-01 1.58267485e-01 0.0
4.05074599e-01 2.00000000e-03 0.0
3.36841285e-01 2.12799014e-02 0.0
1.51394838e-01 1.37586992e-01 0.0
2.16867670e-03 4.29095780e-02 0.0
4.75658011e-01 2.00000000e-03 0.0
5.31613002e-01 2.00000000e-03 0.0
7.02253117e-01 2.00000000e-03 0.0
5.79871711e-01 2.00000000e-03 0.0
2.70753416e-01 1.84099448e-01 0.0
5.84797376e-01 2.00000000e-03 0.0
4.86472975e-01 8.42682458e-02 0.0
7.25219808e-01 5.13685762e-01 0.0
6.08768701e-01 2.00000000e-03 0.0
4.85709193e-01 1.91396582e-01 0.0
7.11361421e-01 6.83571481e-02 0.0
6.90736344e-01 2.00000000e-03 0.0
8.58481168e-01 5.93464138e-02 0.0
4.44589579e-01 2.00000000e-03 0.0
6.12560829e-01 2.00000000e-03 0.0
8.69652019e-01 2.00000000e-03 0.0
5.76563239e-01 2.00000000e-03 0.0
8.06632513e-01 4.17881552e-01 0.0
4.79573533e-01 1.26204634e-02 0.0
9.88203949e-01 1.15182001e-01 0.0
7.97058478e-01 2.00000000e-03 0.0
9.98000000e-01 2.00000000e-03 0.0
6.67398190e-01 2.63709504e-01 0.0
6.81644330e-01 1.33060683e-01 0.0
8.53751966e-01 1.46177786e-01 0.0
6.03467399e-01 1.31926220e-01 0.0
7.81624753e-01 2.00000000e-03 0.0
9.15796344e-01 9.84057253e-02 0.0
7.57319548e-01 1.89145605e-01 0.0
8.35100640e-01 1.06456085e-01 0.0
6.00503194e-01 4.35608966e-02 0.0
9.98000000e-01 7.43439189e-02 0.0
9.98000000e-01 2.06181117e-01 0.0
7.73020251e-01 5.18102471e-02 0.0
8.81573310e-01 7.76760993e-02 0.0
7.52925034e-01 3.31442650e-02 0.0
9.98000000e-01 2.00000000e-03 0.0
7.57104376e-01 2.00000000e-03 0.0
6.73484900e-01 1.18507201e-01 0.0
7.91886803e-01 5.75402827e-02 0.0
9.98000000e-01 7.26846417e-02 0.0
6.11542708e-01 8.11358526e-02 0.0
5.78687403e-01 2.00000000e-03 0.0
5.66699797e-01 1.91221483e-01 0.0
9.98000000e-01 1.68091846e-01 0.0
9.98000000e-01 2.00000000e-03 0.0
9.98000000e-01 2.00000000e-03 0.0
5.43272600e-01 1.19658020e-02 0.0
9.98000000e-01 1.95571842e-01 0.0
9.24030609e-01 2.00000000e-03 0.0
9.98000000e-01 2.00000000e-03 0.0
9.98000000e-01 2.00000000e-03 0.0
9.11478235e-01 2.52425824e-02 0.0
9.98000000e-01 2.03434648e-01 0.0
9.98000000e-01 1.08953791e-01 0.0
2.00000000e-03 4.51894216e-01 0.0
2.00000000e-03 2.00000000e-03 0.0
3.68158629e-02 2.00000000e-03 0.0
2.62083600e-01 1.14250358e-01 0.0
2.35482330e-01 2.00000000e-03 0.0
2.63040297e-01 3.39586308e-01 0.0
2.00000000e-03 1.25595402e-01 0.0
2.05361911e-01 4.73439352e-02 0.0
2.00000000e-03 1.21994420e-01 0.0
3.64206313e-01 4.00037326e-03 0.0
2.83084741e-01 2.00000000e-03 0.0
3.38495014e-01 3.56986144e-01 0.0
2.00000000e-03 2.00000000e-03 0.0
1.92905282e-01 5.88093776e-03 0.0
2.00000000e-03 2.00000000e-03 0.0
2.86921238e-01 2.00000000e-03 0.0
2.00000000e-03 4.21968503e-01 0.0
4.19733199e-01 2.49703975e-01 0.0
2.00000000e-03 2.00000000e-03 0.0
3.93559021e-01 9.62089484e-03 0.0
6.23242204e-02 2.00000000e-03 0.0
1.99960356e-01 2.00000000e-03 0.0
1.86071291e-01 2.00000000e-03 0.0
2.18361193e-01 2.00000000e-03 0.0
2.36670545e-01 2.43916256e-01 0.0
2.96068503e-01 2.84548880e-01 0.0
7.46183823e-02 2.00000000e-03 0.0
8.09061281e-02 2.59254745e-01 0.0
4.19216433e-01 2.00000000e-03 0.0
1.12771506e-01 2.00000000e-03 0.0
3.01936479e-02 2.00000000e-03 0.0
2.00000000e-03 1.88164911e-01 0.0
2.00000000e-03 2.66793905e-01 0.0
4.54797058e-01 2.00000000e-03 0.0
3.32411014e-01 2.00000000e-03 0.0
2.73191925e-01 2.25958412e-01 0.0
2.65489196e-01 2.00000000e-03 0.0
6.84294291e-01 2.49630730e-01 0.0
1.43483057e-01 2.00000000e-03 0.0
5.05997203e-01 2.00000000e-03 0.0
4.62659298e-01 2.00000000e-03 0.0
5.70245918e-01 3.77358886e-01 0.0
2.85119467e-01 6.56008348e-02 0.0
2.77774840e-01 2.00000000e-03 0.0
3.38012098e-01 2.00000000e-03 0.0
5.83887626e-01 2.00000000e-03 0.0
3.31445640e-01 2.00000000e-03 0.0
4.08714694e-01 2.13505687e-01 0.0
4.53127741e-01 2.00000000e-03 0.0
3.44037478e-01 1.97632366e-02 0.0
4.85119212e-01 2.89188326e-01 0.0
6.90849188e-01 2.00000000e-03 0.0
4.79021572e-01 9.52358924e-02 0.0
1.20408853e-01 2.00000000e-03 0.0
5.01616788e-01 2.71233528e-02 0.0
6.10335414e-01 2.00000000e-03 0.0
4.92334277e-01 2.00000000e-03 0.0
7.12613332e-01 2.00000000e-03 0.0
2.79263185e-01 1.03338614e-01 0.0
3.07696022e-01 2.00930904e-01 0.0
3.52149482e-01 2.00000000e-03 0.0
1.85591010e-01 3.98652402e-01 0.0
3.92539859e-02 4.84894256e-02 0.0
6.13810035e-01 2.00000000e-03 0.0
1.53142281e-01 2.22627152e-01 0.0
6.98805061e-01 2.00000000e-03 0.0
6.55718537e-01 2.00000000e-03 0.0
2.50956615e-01 1.97376622e-02 0.0
5.46886745e-01 1.10200416e-01 0.0
4.18697370e-01 2.00000000e-03 0.0
6.25119564e-01 2.00000000e-03 0.0
3.00788824e-01 2.21008548e-01 0.0
5.96297570e-01 5.34185415e-02 0.0
6.10945856e-01 2.62545593e-01 0.0
9.98000000e-01 2.00000000e-03 0.0
4.29480147e-01 2.00000000e-03 0.0
4.66392865e-01 3.37182487e-01 0.0
5.44916784e-01 2.00000000e-03 0.0
7.33299445e-01 7.86052682e-02 0.0
8.44320136e-01 2.00000000e-03 0.0
5.17467802e-01 2.00000000e-03 0.0
9.98000000e-01 1.98596333e-01 0.0
7.26050328e-01 2.00000000e-03 0.0
4.87465243e-01 2.00000000e-03 0.0
8.47937414e-01 2.00000000e-03 0.0
9.80658794e-01 4.58834927e-02 0.0
5.66783521e-01 5.90582634e-02 0.0
7.72856820e-01 2.00000000e-03 0.0
6.89942590e-01 1.49602773e-01 0.0
6.62105358e-01 1.01301831e-01 0.0
9.98000000e-01 2.00000000e-03 0.0
7.62060568e-01 2.00000000e-03 0.0
7.23778685e-01 2.00000000e-03 0.0
8.64275702e-01 8.85399665e-02 0.0
9.98000000e-01 4.51016577e-01 0.0
9.01978562e-01 4.12888812e-01 0.0
9.98000000e-01 2.00000000e-03 0.0
9.98000000e-01 2.00000000e-03 0.0
9.89871834e-01 1.99755226e-01 0.0
7.25421857e-01 4.54800001e-03 0.0
6.84951110e-01 2.00000000e-03 0.0
9.38381286e-01 2.00000000e-03 0.0
3.12665162e-01 2.00000000e-03 0.0
9.98000000e-01 4.70249054e-02 0.0
5.15369126e-01 2.00000000e-03 0.0
7.03768271e-01 2.28343449e-01 0.0
9.10489335e-01 2.00000000e-03 0.0
8.72047946e-01 1.98890653e-01 0.0
8.18008537e-01 7.77391114e-02 0.0
7.40512330e-01 1.06682554e-01 0.0
9.98000000e-01 2.08038121e-01 0.0
9.97468941e-01 3.69006700e-01 0.0
5.60743814e-01 1.13907869e-02 0.0
7.32496592e-01 2.00000000e-03 0.0
9.98000000e-01 1.17659836e-01 0.0
7.61260978e-01 2.55058543e-01 0.0
9.98000000e-01 2.00000000e-03 0.0
9.98000000e-01 2.00000000e-03 0.0
8.93980825e-01 1.80652442e-01 0.0
9.98000000e-01 2.00000000e-03 0.0
1.87629179e-01 2.00000000e-03 0.0
2.22715342e-02 4.62058452e-02 0.0
1.13567849e-01 2.75352852e-01 0.0
2.00000000e-03 2.00000000e-03 0.0
2.00000000e-03 1.53875050e-01 0.0
2.00000000e-03 2.51509490e-01 0.0
1.95385854e-01 2.00000000e-03 0.0
2.00000000e-03 2.00000000e-03 0.0
8.89452353e-01 1.70574112e-01 0.0
2.00000000e-03 2.00000000e-03 0.0
2.00000000e-03 6.25001538e-02 0.0
2.00000000e-03 2.12899113e-01 0.0
2.00000000e-03 2.00000000e-03 0.0
2.84419738e-01 2.00000000e-03 0.0
4.64072306e-02 2.00000000e-03 0.0
1.35089008e-01 2.00000000e-03 0.0
2.00000000e-03 2.00000000e-03 0.0
2.00000000e-03 2.00000000e-03 0.0
2.31808955e-01 5.57579276e-02 0.0
2.17376915e-01 2.00000000e-03 0.0
5.55517573e-01 2.00000000e-03 0.0
4.29935612e-01 4.05127017e-01 0.0
2.27543500e-01 2.00000000e-03 0.0
5.08638614e-01 2.00000000e-03 0.0
5.84292437e-01 4.92427613e-03 0.0
2.61453523e-01 8.97272251e-02 0.0
1.14219470e-01 2.00000000e-03 0.0
1.41194347e-01 2.00000000e-03 0.0
6.37248048e-01 3.71802568e-01 0.0
2.66550389e-01 9.07175227e-02 0.0
1.08970608e-01 7.74983242e-02 0.0
1.96582212e-01 2.00000000e-03 0.0
2.15000280e-01 7.91797497e-02 0.0
1.12782362e-01 1.68722438e-01 0.0
3.01355484e-01 1.18962187e-02 0.0
1.80375342e-01 2.00000000e-03 0.0
4.88952642e-01 2.00000000e-03 0.0
3.36450058e-01 7.51205471e-02 0.0
4.29477052e-02 1.37170311e-01 0.0
5.84294226e-01 8.12446567e-02 0.0
3.46304868e-01 6.36902381e-02 0.0
3.96744446e-01 2.00000000e-03 0.0
6.35542994e-01 1.52244582e-01 0.0
9.98000000e-01 4.38689971e-01 0.0
4.98576658e-01 2.53230159e-01 0.0
5.51069832e-01 2.00000000e-03 0.0
5.19665875e-01 2.00000000e-03 0.0
3.06616402e-01 2.00000000e-03 0.0
3.58809298e-01 2.00000000e-03 0.0
4.50825580e-01 2.00000000e-03 0.0
5.64084314e-01 6.78954157e-01 0.0
[...]
CELL_DATA 9424
SCALARS z float 1
LOOKUP_TABLE default
5.47710149e+00
5.56107147e+00
9.39161206e+00
4.82581970e+00
4.44129177e+00
4.73686617e+00
8.55217975e+00
3.83250462e+00
6.20090141e+00
5.13584164e+00
3.34869702e+00
6.23551259e+00
6.80700706e+00
5.14240557e+00
6.80700706e+00
8.53672656e+00
2.81591345e+01
4.87388879e+00
4.61487485e+00
2.19417936e+01
4.72104750e+00
9.34352726e+00
3.53677937e+01
3.51027152e+00
3.51027152e+00
6.93436442e+00
5.47710149e+00
6.23551259e+00
4.12894548e+00
3.87074313e+00
1.82253202e+01
5.30121355e+00
2.98266055e+00
6.18698024e+00
1.07296699e+01
1.07296699e+01
8.10451211e+00
5.99677974e+00
3.72351937e+00
7.41950032e+00
8.23958850e+00
3.60743319e+00
6.64975504e+00
3.70174422e+00
6.93436442e+00
9.18993282e+00
4.12419704e+00
4.71095628e+00
4.99275849e+00
2.55007424e+00
2.72845015e+00
1.01447907e+01
5.81386558e+00
2.87780868e+00
2.87780868e+00
3.76195707e+00
1.74908064e+01
4.10675659e+00
4.48872792e+00
4.48872792e+00
7.32569232e+00
3.90984312e+00
8.52474531e+00
6.53136514e+00
6.35278960e+00
1.43131995e+01
5.16001750e+00
3.18155982e+00
3.03484749e+00
5.14240557e+00
7.78309763e+00
2.59512298e+00
8.14548155e+00
1.01967164e+01
3.83250462e+00
4.87388879e+00
4.68247158e+00
4.56398218e+00
4.72104750e+00
4.44129177e+00
2.98266055e+00
8.16000850e+00
5.01774501e+00
2.88964339e+00
3.15919351e+01
6.50836514e+00
6.67342649e+00
4.52297917e+00
3.43057363e+00
7.47943964e+00
4.74505000e+00
3.89971366e+00
3.89971366e+00
6.16100166e+00
8.45168987e+00
3.84760856e+00
5.28529517e+00
2.79797086e+00
3.96175199e+00
3.75604803e+00
8.10451211e+00
1.24096202e+01
1.28189587e+01
2.78776384e+00
4.18347886e+00
5.87825288e+00
5.41882989e+00
3.65726710e+00
9.98665929e+00
7.77383353e+00
5.71531152e+00
3.67811745e+00
5.36131005e+00
6.29906158e+00
5.73002242e+00
1.29417087e+01
5.13170932e+00
3.82817303e+00
7.36907129e+00
7.84215605e+00
7.38129910e+00
1.65199945e+01
6.00010347e+00
7.31859741e+00
5.10013830e+00
3.49035131e+00
8.24582864e+00
4.03394303e+00
4.45715847e+00
1.01317412e+01
4.45715847e+00
5.22724380e+00
9.74464827e+00
6.46105869e+00
3.37367944e+00
3.37367944e+00
4.14992172e+00
4.14992172e+00
3.23894688e+00
3.23894688e+00
6.33529681e+00
1.09448288e+01
7.66002084e+00
3.71005745e+00
6.26377501e+00
3.27432512e+00
3.12869257e+00
3.27432512e+00
8.17819982e+00
4.27139264e+00
6.52159946e+00
5.46385197e+00
2.49913806e+00
3.15628608e+00
4.60142172e+00
3.41780366e+00
1.04146329e+01
4.60142172e+00
2.84486712e+00
3.60884198e+00
2.84486712e+00
6.99184270e+00
4.95100382e+00
1.04111447e+01
6.99184270e+00
8.13718945e+00
3.28473599e+00
4.56868996e+00
5.16496717e+00
1.22033119e+01
1.21690355e+01
6.96845008e+00
3.51467073e+00
5.18979011e+00
8.52474531e+00
5.22874282e+00
4.65169752e+00
4.42359080e+00
5.45477058e+00
5.36525064e+00
5.09116208e+00
2.53385515e+00
6.03810165e+00
6.03810165e+00
2.14419327e+01
9.28666144e+00
5.37357744e+00
1.41293704e+01
9.09172097e+00
5.16001750e+00
1.30946679e+01
4.94416833e+00
1.14517439e+01
1.10265463e+01
5.96406268e+00
5.04135610e+00
4.73953364e+00
4.33260703e+00
6.32244293e+00
1.74281259e+01
1.67881775e+01
3.18922205e+00
4.83316343e+00
5.59738091e+00
4.29723065e+00
4.29723065e+00
7.52428422e+00
5.59738091e+00
6.04727214e+00
7.14888766e+00
3.18922205e+00
1.03504787e+01
4.62558241e+00
1.32804507e+01
9.73298725e+00
7.82049583e+00
3.03484749e+00
6.24072185e+00
5.05899324e+00
3.24390473e+00
1.75281476e+01
6.82022944e+00
2.73445173e+00
2.59512298e+00
2.83615270e+00
1.19440916e+01
9.07242262e+00
6.47907868e+00
5.97473040e+00
5.97473040e+00
3.17104140e+00
4.10060208e+00
4.44034614e+00
5.16500928e+00
4.44034614e+00
4.10060208e+00
6.33755237e+00
6.33755237e+00
5.22127738e+00
1.73682819e+01
6.59838623e+00
2.84070370e+00
4.20663053e+00
7.58127847e+00
3.86410403e+00
3.86410403e+00
7.96246608e+00
4.52297917e+00
2.10850505e+01
3.87879062e+00
3.87879062e+00
6.84115696e+00
3.63164728e+00
3.63164728e+00
5.13954993e+00
5.61181695e+00
5.06637164e+00
5.06637164e+00
3.93146043e+00
6.36041563e+00
2.77083640e+00
5.43258628e+00
9.42175593e+00
9.63945267e+00
2.97502935e+00
2.97502935e+00
6.48387630e+00
5.02705670e+00
5.53921885e+00
8.33784763e+00
1.17419909e+01
8.12353106e+00
3.70866548e+00
6.21195398e+00
3.98598557e+00
8.09445078e+00
7.54869238e+00
6.39943385e+00
5.88153947e+00
8.20167224e+00
4.32071528e+00
4.98743726e+00
9.34352726e+00
6.71432356e+00
3.72351937e+00
7.48974488e+00
4.24233370e+00
4.24233370e+00
9.04997135e+00
3.74105509e+00
2.26015799e+00
2.26015799e+00
8.72513703e+00
3.89614492e+00
4.97297403e+00
6.09757586e+00
2.70191829e+01
4.18347886e+00
7.62738173e+00
7.62738173e+00
3.48714141e+00
1.92967135e+01
3.40697817e+00
3.16831601e+00
3.16831601e+00
1.02080831e+01
3.57970359e+01
5.62381476e+00
4.67664626e+00
4.84978790e+00
4.84978790e+00
4.67664626e+00
6.77447008e+00
7.77383353e+00
1.26990638e+01
3.14389912e+00
3.14389912e+00
5.03415963e+00
1.09274642e+01
3.28540383e+00
3.28540383e+00
5.41882989e+00
6.99109829e+00
1.63766034e+01
4.26683380e+00
5.18979011e+00
3.82817303e+00
4.25541636e+00
4.15386692e+00
3.59575301e+00
3.31836109e+00
5.47181939e+00
3.33464557e+00
5.13170932e+00
5.80386144e+00
9.71280544e+00
5.78004417e+00
1.26848991e+01
6.73620691e+00
4.73058021e+01
5.39466692e+00
1.22068235e+01
6.00010347e+00
5.39466692e+00
1.16571098e+01
3.95200009e+00
8.76846228e+00
5.63643507e+00
5.63643507e+00
6.30184628e+00
4.40381687e+00
6.57111273e+00
6.80965763e+00
4.27400282e+00
5.58037809e+00
6.04095344e+00
4.40769633e+00
4.40769633e+00
5.13386835e+00
3.15894946e+00
7.04595138e+00
9.71385905e+00
9.71385905e+00
9.08881659e+00
9.08881659e+00
8.42448632e+00
1.29440818e+01
7.55620083e+00
4.67983698e+00
5.36244037e+00
5.45684708e+00
5.36244037e+00
1.39473755e+01
5.62663111e+00
5.17273952e+00
1.11249904e+01
5.00473128e+00
2.30332673e+00
2.30332673e+00
6.40224287e+00
5.54377893e+00
2.94469389e+00
2.94469389e+00
5.15900212e+00
6.64975504e+00
1.28081813e+01
6.13764565e+00
5.65049711e+00
3.70174422e+00
2.55547031e+00
4.34048483e+00
5.65049711e+00
4.34048483e+00
8.24886136e+00
5.42070418e+00
2.55007424e+00
4.49188099e+00
1.02407824e+01
1.02407824e+01
4.71095628e+00
4.95537703e+00
3.72543134e+00
4.17215394e+00
4.13091029e+00
1.00475953e+01
4.95663027e+00
4.12419704e+00
6.22763548e+00
6.68263519e+00
3.76195707e+00
4.77533256e+00
4.85201415e+00
1.40123893e+01
4.95100382e+00
4.85201415e+00
5.13827177e+00
1.03680080e+01
6.26377501e+00
4.95512956e+00
9.78097545e+00
3.49563699e+00
3.49563699e+00
4.88842065e+00
5.58392508e+00
4.78734100e+00
5.37326167e+00
4.55851562e+00
3.30670406e+00
1.37185762e+01
5.63361768e+00
5.63361768e+00
1.04891129e+01
8.47605648e+00
7.15363240e+00
9.87141067e+00
6.93911744e+00
3.12869257e+00
1.87001559e+01
4.51771424e+00
4.51771424e+00
4.57286849e+00
2.71420085e+00
2.71420085e+00
3.15628608e+00
4.41641407e+00
1.78923974e+01
5.13827177e+00
3.71005745e+00
7.53121805e+00
1.10139153e+01
7.34092349e+00
5.81386558e+00
9.32661092e+00
8.13718945e+00
3.28473599e+00
3.54936348e+01
4.17920542e+00
4.10675659e+00
9.50510273e+00
3.47317463e+00
3.90984312e+00
4.40305139e+00
7.08219237e+00
1.29024331e+01
1.29024331e+01
6.67506917e+00
2.09813886e+01
4.56868996e+00
6.06016873e+00
1.64528855e+01
4.48826523e+00
6.30191604e+00
5.15900212e+00
7.79096095e+00
1.09439737e+01
4.09521324e+00
1.05735067e+01
4.09521324e+00
6.06016873e+00
5.01774501e+00
4.63774789e+00
2.90265549e+00
9.82587965e+00
2.53385515e+00
2.67285190e+01
7.06015872e+00
5.61418459e+00
3.83866235e+00
6.91579493e+00
2.79636351e+00
1.44985232e+01
1.91057542e+01
6.79190918e+00
4.68636407e+00
4.68636407e+00
4.69236574e+00
1.15857620e+01
6.74923693e+00
3.04762139e+00
6.53136514e+00
6.96349034e+00
5.73097682e+00
6.25946506e+00
5.22874282e+00
3.56357395e+00
3.56357395e+00
6.27740356e+00
9.42362773e+00
1.18412994e+01
1.35761161e+01
1.01432641e+01
7.98677755e+00
7.98677755e+00
9.40589461e+00
5.04135610e+00
5.37856051e+00
5.15412749e+00
5.25137546e+00
3.66857633e+00
5.15412749e+00
4.42429495e+00
4.42429495e+00
4.87159775e+00
4.73953364e+00
5.91967328e+00
6.05939908e+00
1.04426854e+01
8.36011972e+00
1.22034531e+01
9.25494147e+00
4.18364871e+00
1.54480119e+01
5.34472174e+00
5.34164144e+00
3.55268113e+00
8.24569992e+00
5.53015891e+00
6.50680404e+00
7.40101374e+00
4.05273937e+00
4.91667811e+00
5.63475216e+00
6.38458673e+00
4.79523648e+00
6.16477241e+00
5.73255613e+00
5.73255613e+00
4.92153348e+00
4.27344673e+00
5.71415429e+00
3.39220580e+00
2.17020018e+01
6.84264555e+00
5.71415429e+00
3.39220580e+00
5.46278216e+00
4.44576120e+00
4.03288853e+00
4.44576120e+00
3.60044689e+00
8.60661358e+00
3.60044689e+00
8.74222812e+00
1.74366412e+01
5.70991558e+00
4.55307275e+00
6.40165653e+00
9.95014768e+00
8.98398862e+00
3.34620289e+00
3.00001278e+00
3.00001278e+00
5.75362791e+00
1.32445049e+01
5.57395542e+00
7.58405900e+00
9.44372260e+00
4.48811208e+00
2.66504483e+00
3.18579620e+00
8.00022651e+00
1.22130829e+01
4.59083873e+00
4.68721726e+00
1.50819805e+01
1.18612798e+01
4.83176876e+00
1.03671182e+01
1.44406295e+01
1.45476283e+01
8.00022651e+00
8.98218554e+00
5.18843007e+00
4.83301516e+00
1.38747066e+01
3.70198831e+00
4.62558241e+00
3.71730745e+00
1.02336354e+01
1.01967164e+01
6.47907868e+00
3.17104140e+00
4.82563006e+00
4.12894548e+00
3.34869702e+00
6.58459122e+00
3.27882177e+00
7.00694767e+00
1.64296409e+01
2.51927189e+01
4.85598290e+00
6.66047242e+00
7.89777025e+00
2.84070370e+00
6.20930015e+00
4.20663053e+00
1.19352798e+01
2.88964339e+00
5.20751189e+00
5.20751189e+00
7.90301241e+00
3.92020074e+00
3.92020074e+00
7.49361958e+00
5.13221070e+00
4.93033413e+00
9.11068881e+00
7.16897516e+00
4.53895226e+00
4.53895226e+00
6.45878730e+00
5.43517989e+00
6.04083970e+00
5.43517989e+00
4.91322964e+00
4.91322964e+00
5.25019606e+00
5.25019606e+00
5.07212642e+00
3.50235296e+00
6.25531430e+00
7.40997699e+00
7.81033575e+00
1.10708980e+01
2.08384880e+01
5.11090068e+00
6.95132672e+00
6.95132672e+00
4.90658658e+00
3.92141603e+00
3.92141603e+00
3.00975210e+00
2.73248705e+00
1.92989622e+01
2.77083640e+00
4.27676770e+00
1.29454687e+01
6.02789630e+00
1.48506337e+01
4.89015863e+00
4.89015863e+00
8.49407112e+00
5.59139183e+00
3.50546651e+00
4.19067428e+00
3.90319932e+00
8.12546434e+00
5.59139183e+00
3.67435332e+00
4.30524730e+00
3.91446907e+00
6.40660340e+00
3.83866235e+00
4.95236342e+00
3.75809684e+01
9.47610552e+00
7.08248451e+00
7.60945577e+00
7.06465802e+00
7.06465802e+00
8.14240325e+00
7.35881014e+00
6.39335085e+00
7.43594144e+00
7.43594144e+00
7.54869238e+00
6.39335085e+00
5.45711594e+00
5.45711594e+00
9.63901161e+00
1.22609523e+01
3.35286945e+00
9.40869486e+00
3.89528754e+00
5.88153947e+00
8.10494481e+00
1.14421197e+01
2.95947743e+00
7.01425886e+00
3.73660497e+00
5.88914153e+00
7.35854671e+00
4.15443947e+00
4.15443947e+00
5.78118465e+00
5.72458457e+00
1.43821566e+01
6.01077867e+00
5.50780892e+00
5.50780892e+00
7.57236992e+00
7.57236992e+00
1.25348361e+01
6.36755934e+00
6.14794713e+00
4.45445735e+00
3.96175199e+00
3.96390536e+00
3.29125139e+00
6.16046801e+00
3.59165615e+00
4.14039267e+00
4.14039267e+00
5.10649930e+00
9.67147941e+00
5.28529517e+00
1.32864361e+01
3.41244688e+00
7.05422431e+00
1.70055859e+01
3.12962638e+00
3.12962638e+00
1.29905107e+01
6.09757586e+00
5.55451129e+00
5.68541050e+00
8.18807930e+00
8.18807930e+00
4.27892177e+00
7.37041361e+00
5.05899324e+00
5.79957198e+00
5.80842176e+00
4.90483524e+00
3.67811745e+00
4.45201492e+00
1.28287984e+01
4.45201492e+00
5.17790707e+00
5.17790707e+00
4.25306208e+00
5.83370603e+00
2.45992218e+00
2.45992218e+00
3.44149135e+00
6.14718909e+00
2.58526228e+00
2.58526228e+00
5.29612513e+00
6.77447008e+00
1.26990638e+01
5.54152418e+00
7.76060894e+00
9.38980064e+00
4.26683380e+00
1.75753702e+01
7.89099945e+00
4.59210163e+00
4.09821048e+00
4.85267651e+00
4.09821048e+00
1.09169005e+01
4.64586697e+00
5.49499341e+00
3.40251100e+00
4.25541636e+00
3.59575301e+00
5.79641819e+00
5.27618000e+00
6.12909911e+00
1.24913600e+01
6.12909911e+00
4.29995502e+00
3.31836109e+00
5.52599562e+00
5.52599562e+00
7.29685408e+00
1.24913600e+01
4.79077203e+00
3.10084224e+00
5.56198145e+00
1.03489644e+01
7.16749611e+00
4.87550222e+00
7.13740591e+00
6.27646679e+00
5.71718899e+00
1.42563982e+01
1.94132160e+01
2.13403803e+01
8.76846228e+00
4.70734980e+01
3.27050987e+01
6.53461412e+00
5.08423350e+00
4.40381687e+00
6.30184628e+00
7.83561641e+00
4.52227671e+00
6.71663599e+00
3.49035131e+00
4.87378808e+00
5.21933932e+00
3.55268113e+00
1.45310826e+01
1.30992421e+01
8.84752869e+00
4.98646431e+00
3.86233965e+00
3.16605668e+00
4.19518482e+00
4.59774204e+00
3.14411609e+00
8.83607692e+00
6.55691069e+00
1.03935274e+01
1.75855428e+01
3.19686423e+00
3.36524735e+00
1.22819886e+01
1.30751592e+01
4.89151590e+00
5.69224656e+00
8.11938998e+00
5.40060320e+00
1.34933536e+01
6.02902679e+00
1.40714919e+01
3.15894946e+00
3.22703531e+01
3.28905960e+00
6.62533208e+00
4.34421701e+00
6.62533208e+00
5.23531929e+00
2.95874966e+00
4.59631561e+00
1.92782042e+01
7.04595138e+00
6.85534326e+00
7.31021635e+00
2.82762599e+00
5.40060320e+00
9.40152385e+00
6.30191604e+00
3.54126547e+00
5.98725444e+00
5.07107961e+00
5.07107961e+00
5.46338873e+00
1.10558875e+01
8.27582210e+00
1.07136283e+01
3.73528252e+00
3.58842157e+00
3.58842157e+00
4.67983698e+00
6.31240116e+00
1.04864390e+01
8.25823401e+00
5.62663111e+00
8.77430541e+00
8.77430541e+00
1.13495166e+01
4.20073634e+00
4.64586697e+00
4.13836471e+00
4.80805843e+00
5.40350444e+00
4.03394303e+00
4.59631561e+00
5.96990314e+00
3.71667107e+00
2.22678971e+01
1.28081813e+01
4.25858305e+00
2.55547031e+00
3.12556566e+00
3.17176766e+00
3.85501071e+00
1.17728655e+01
9.94354761e+00
4.13091029e+00
4.95663027e+00
1.06415842e+01
3.89014861e+00
5.31488898e+00
3.13594589e+00
8.96056676e+00
4.07282587e+00
8.96056676e+00
7.39094052e+00
6.61490769e+00
6.61490769e+00
4.82455093e+00
4.82455093e+00
4.52819692e+00
4.52819692e+00
2.67151892e+00
1.01172284e+01
9.22991558e+00
6.72980223e+00
6.72980223e+00
5.25236779e+00
5.28917892e+00
7.21206018e+00
4.55851562e+00
9.20344995e+00
1.22619447e+01
1.04891129e+01
7.63831907e+00
4.46091056e+00
7.63831907e+00
5.28851943e+00
2.61194868e+00
6.50578273e+00
6.50578273e+00
3.77878523e+00
5.29397595e+00
3.77878523e+00
2.32406830e+00
2.31738643e+00
2.31738643e+00
5.66586238e+00
4.99836844e+00
1.07874655e+01
3.04603137e+01
2.79797086e+00
3.29125139e+00
3.90419560e+00
2.38356343e+00
6.68263519e+00
7.91051816e+00
4.33831195e+00
4.33831195e+00
5.43099988e+00
5.43099988e+00
9.71147669e+00
3.13885272e+00
1.82875115e+01
3.90419560e+00
7.99778071e+00
7.99778071e+00
3.72793494e+00
5.14647821e+00
5.76619588e+00
1.08357594e+01
4.54841922e+00
4.54841922e+00
4.52408739e+00
4.52408739e+00
9.67231165e+00
9.67231165e+00
7.63526054e+00
7.37553113e+00
6.22135277e+00
1.02944687e+01
1.15280456e+01
7.21574909e+00
7.03701062e+00
3.09805697e+00
3.09805697e+00
3.51467073e+00
5.79641819e+00
4.56722948e+00
1.02234035e+01
7.74914319e+00
3.02571266e+00
6.86516886e+00
6.54397946e+00
8.30624521e+00
3.33107254e+00
2.75584185e+01
9.26971781e+00
5.36525064e+00
6.44812367e+00
4.08173971e+00
2.76392806e+00
2.76392806e+00
4.05286217e+00
4.05286217e+00
5.32352846e+00
2.77424812e+00
6.51889579e+00
9.97783109e+00
4.36830297e+00
3.57668532e+00
8.50065420e+00
6.11093012e+00
5.26694874e+00
3.28996618e+00
4.71488562e+00
4.71488562e+00
5.09116208e+00
7.60945577e+00
2.89094207e+00
7.52212234e+00
9.01857045e+00
1.12200560e+01
3.70645207e+00
3.70645207e+00
5.14045469e+00
8.43310987e+00
5.14045469e+00
3.76985301e+00
2.73779255e+00
9.20803405e+00
1.81085286e+01
2.79225817e+00
4.19365678e+00
2.30722988e+01
4.01447052e+00
4.19365678e+00
9.78800767e+00
2.85762257e+00
3.03501172e+00
8.25843359e+00
3.15249871e+00
1.80501558e+01
2.94754259e+00
2.94754259e+00
4.21971916e+00
4.35511945e+00
9.56781662e+00
6.87984047e+00
5.20407016e+00
7.96090736e+00
1.01432641e+01
6.76937013e+00
4.52285338e+00
1.61705580e+01
6.41904428e+00
6.41904428e+00
7.74409858e+00
1.11485287e+01
3.13589895e+00
4.67305705e+00
4.67305705e+00
5.89334650e+00
1.54492373e+01
3.40247250e+00
4.98848592e+00
4.35493995e+00
7.27922645e+00
3.68456007e+00
2.93186392e+00
9.28899976e+00
3.68456007e+00
1.64817308e+01
6.11107286e+00
7.86826159e+00
6.11107286e+00
4.92987414e+00
1.17280533e+01
1.35291381e+01
5.96406268e+00
5.56915230e+00
5.14150019e+00
5.14150019e+00
4.17567958e+00
2.46405944e+00
7.34845012e+00
4.58773119e+00
7.88630719e+00
1.03085534e+01
8.38061474e+00
5.60029623e+00
1.40985354e+01
5.60029623e+00
5.04330970e+00
5.04330970e+00
4.82455711e+00
4.82455711e+00
4.20688558e+00
5.63935764e+00
4.95011108e+00
4.95011108e+00
7.20066019e+00
5.20933086e+00
8.45642916e+00
5.51619265e+00
7.05070811e+00
7.05070811e+00
3.54125872e+00
4.29442733e+00
1.46590640e+01
6.76324581e+00
5.04747966e+00
5.04747966e+00
3.16605668e+00
2.81568915e+00
6.58057046e+00
4.46705688e+00
4.81722810e+00
6.84819762e+00
7.55909281e+00
8.45642916e+00
5.48597320e+00
6.18809054e+00
7.37699754e+00
1.08388678e+01
5.14306114e+00
3.27775504e+00
3.27775504e+00
4.55371534e+00
4.05273937e+00
7.42358479e+00
6.00476613e+00
4.91667811e+00
4.43369895e+00
5.77239670e+00
6.04139145e+00
4.43369895e+00
3.00901726e+00
9.88001932e+00
7.72730651e+00
7.72730651e+00
7.10428167e+00
6.86326081e+00
3.81816408e+00
4.21392867e+00
5.78898859e+00
5.78898859e+00
1.14593285e+01
4.59632746e+00
4.27344673e+00
9.19484313e+00
4.62285802e+00
2.85357869e+00
8.98398862e+00
9.35243872e+00
2.11507433e+00
2.11507433e+00
7.60654862e+00
5.21593835e+00
3.87388390e+00
1.18515900e+01
4.63113960e+00
5.27007209e+00
1.40279938e+01
5.89949602e+00
3.32669592e+00
3.32669592e+00
6.66941054e+00
8.91063864e+00
5.67484802e+00
4.26342761e+00
3.70934177e+00
9.33568696e+00
4.30724087e+00
4.30724087e+00
1.24375194e+01
4.63113960e+00
5.27007209e+00
5.71515724e+00
5.71515724e+00
6.82237056e+00
5.95071881e+00
5.95071881e+00
3.58371384e+00
5.83125957e+00
5.83125957e+00
2.61249185e+00
2.61249185e+00
4.21965150e+00
4.21965150e+00
1.27429990e+01
2.34931372e+00
7.13407522e+00
3.44822648e+00
2.56899411e+00
1.11741496e+01
2.56899411e+00
6.09941629e+00
6.68302681e+00
9.02330442e+00
7.73048716e+00
6.68302681e+00
1.21809023e+01
3.21505120e+00
3.74178370e+00
4.21582822e+00
7.20708539e+00
1.96828354e+01
9.60529590e+00
8.40681713e+00
7.05069236e+00
4.48811208e+00
9.44372260e+00
7.36345538e+00
4.75733620e+00
3.59933210e+00
4.70704745e+00
4.11192349e+00
4.45132963e+00
4.45132963e+00
7.34957208e+00
3.18155982e+00
2.43215966e+00
2.43215966e+00
7.70139856e+00
7.70139856e+00
2.36813458e+00
1.46499936e+01
4.19712458e+00
4.86478217e+00
3.68697281e+00
3.31958878e+00
4.57593703e+00
3.68697281e+00
3.31958878e+00
4.37195672e+00
4.83301516e+00
8.45531658e+00
5.46278216e+00
2.45296474e+01
3.24390473e+00
7.30397235e+00
4.41970361e+00
4.41970361e+00
4.64173553e+00
8.26861927e+00
2.57397760e+00
5.19822525e+00
4.13861288e+00
4.13861288e+00
6.25342055e+00
2.57397760e+00
6.25342055e+00
3.70198831e+00
3.60385789e+00
5.83714330e+00
1.52696453e+01
2.93260394e+00
9.81041916e+00
4.11715440e+00
1.25677282e+01
1.19247278e+01
3.52208653e+00
9.79676249e+00
4.68247158e+00
1.19440916e+01
3.27882177e+00
7.75318135e+00
1.22120164e+01
7.94239679e+00
7.94239679e+00
3.43057363e+00
4.79108074e+00
8.16000850e+00
4.28007587e+00
7.16769921e+00
9.90973047e+00
7.00694767e+00
3.78396735e+00
2.83361507e+00
2.75548339e+00
9.49562218e+00
1.02878058e+01
7.51347822e+00
9.36188708e+00
9.36188708e+00
4.76688343e+00
4.76688343e+00
1.02259257e+01
4.85598290e+00
4.25028705e+00
4.25028705e+00
3.09160861e+00
3.09160861e+00
6.55691069e+00
4.59075812e+00
5.34771808e+00
5.12784441e+00
2.33466079e+00
2.70399738e+00
2.33466079e+00
7.70718694e+00
1.52696971e+01
2.82967578e+00
2.77096419e+00
2.77096419e+00
1.42254064e+01
5.53921885e+00
6.77366186e+00
3.93146043e+00
7.03793320e+00
8.01207401e+00
4.82736785e+00
4.82736785e+00
5.11090068e+00
3.34837553e+01
7.87530029e+00
7.87530029e+00
4.30098566e+00
7.58361179e+00
1.10708980e+01
9.46644062e+00
6.70797060e+00
2.74375785e+00
2.74375785e+00
5.30922891e+00
4.02953839e+00
3.00975210e+00
3.70866548e+00
4.19219818e+00
1.66759386e+01
6.81822649e+00
2.13262812e+01
3.48277547e+00
2.73259957e+00
1.74481807e+01
2.13262812e+01
2.73259957e+00
7.02544506e+00
1.51852104e+01
3.78343202e+00
2.51046250e+00
5.32615376e+00