# vtk DataFile Version 2.0
z-phase-transition mesh
ASCII
DATASET UNSTRUCTURED_GRID

POINTS 8640 float
2.00000000e-03 2.54312492e-02 0.0
2.73851507e-02 2.00000000e-03 0.0
4.53589470e-02 2.00000000e-03 0.0
2.00000000e-03 8.00256919e-02 0.0
2.00000000e-03 2.00000000e-03 0.0
1.88768583e-02 2.00000000e-03 0.0
4.74506565e-02 2.00000000e-03 0.0
4.33797234e-02 2.00000000e-03 0.0
4.50905966e-02 4.02672579e-02 0.0
8.14463334e-02 2.00000000e-03 0.0
5.85351185e-02 4.76986063e-02 0.0
2.31548674e-02 2.00000000e-03 0.0
1.88893634e-01 2.00000000e-03 0.0
1.06116521e-01 2.38651320e-02 0.0
2.07823332e-01 2.00000000e-03 0.0
1.31228276e-01 3.81548650e-02 0.0
2.58364457e-02 6.78633377e-02 0.0
1.64116017e-01 6.51192319e-03 0.0
5.19611437e-02 2.00000000e-03 0.0
2.30220215e-01 4.71548545e-02 0.0
1.33399423e-01 4.81675162e-02 0.0
1.34451294e-01 2.00000000e-03 0.0
2.29677566e-01 2.00000000e-03 0.0
1.83161265e-01 2.69105873e-02 0.0
2.45494513e-01 6.25253240e-02 0.0
1.87768808e-01 2.00000000e-03 0.0
2.21823046e-01 3.43415493e-02 0.0
2.16903673e-01 3.71316964e-02 0.0
2.75160853e-01 9.44755182e-03 0.0
2.61614442e-01 2.00000000e-03 0.0
2.74009185e-01 2.00000000e-03 0.0
3.40225518e-01 4.91826496e-03 0.0
3.01031346e-01 2.00000000e-03 0.0
2.17583847e-01 2.00000000e-03 0.0
3.49472056e-01 2.00000000e-03 0.0
3.27927260e-01 2.00000000e-03 0.0
2.95399415e-01 8.06698971e-02 0.0
3.41227955e-01 2.00000000e-03 0.0
3.99197938e-01 7.23977280e-02 0.0
3.46297042e-01 2.00000000e-03 0.0
3.80776147e-01 1.47715712e-02 0.0
3.50918644e-01 2.00000000e-03 0.0
3.81611956e-01 2.00000000e-03 0.0
4.01139719e-01 2.00000000e-03 0.0
3.37255411e-01 2.00000000e-03 0.0
3.08004336e-01 1.44071881e-02 0.0
3.18647457e-01 1.13207559e-02 0.0
4.45431326e-01 2.66677086e-02 0.0
4.90378951e-01 1.74546854e-02 0.0
4.44075499e-01 2.00000000e-03 0.0
3.83686151e-01 1.39235253e-02 0.0
4.38531847e-01 6.01938764e-02 0.0
4.46339369e-01 2.72928353e-02 0.0
4.22055552e-01 6.03900034e-03 0.0
3.98379472e-01 2.00000000e-03 0.0
4.06628365e-01 1.13162835e-02 0.0
5.44526543e-01 2.00000000e-03 0.0
4.37859479e-01 3.43185853e-02 0.0
6.02215710e-01 2.43806871e-02 0.0
5.34911037e-01 2.00000000e-03 0.0
5.00135491e-01 6.52344739e-03 0.0
5.62238037e-01 6.31715574e-02 0.0
5.19664459e-01 4.50130418e-02 0.0
4.90588075e-01 2.00000000e-03 0.0
5.27154791e-01 2.00000000e-03 0.0
5.42927253e-01 4.53803826e-02 0.0
5.14048793e-01 2.00000000e-03 0.0
5.51115750e-01 1.90220271e-02 0.0
6.07222091e-01 2.27522092e-02 0.0
6.62005272e-01 5.32703060e-02 0.0
5.67812671e-01 2.00000000e-03 0.0
6.02700750e-01 2.00000000e-03 0.0
6.32243553e-01 2.00000000e-03 0.0
5.83867973e-01 2.89891276e-02 0.0
5.90236258e-01 2.00419376e-02 0.0
6.45734966e-01 2.00000000e-03 0.0
5.86400471e-01 2.00000000e-03 0.0
6.47840069e-01 2.00000000e-03 0.0
7.22343860e-01 1.73862407e-02 0.0
6.51634557e-01 2.14927590e-02 0.0
6.92018887e-01 2.00000000e-03 0.0
7.59534565e-01 2.00000000e-03 0.0
7.69362591e-01 2.00000000e-03 0.0
7.54275550e-01 2.00000000e-03 0.0
7.72060172e-01 2.00000000e-03 0.0
6.88586481e-01 2.00000000e-03 0.0
7.68275597e-01 7.14271722e-02 0.0
7.30771708e-01 1.40067019e-02 0.0
7.13909575e-01 4.76624323e-02 0.0
6.83955780e-01 1.79830395e-02 0.0
8.35435070e-01 6.10104345e-03 0.0
7.44910133e-01 2.00000000e-03 0.0
7.79259734e-01 6.52767456e-03 0.0
7.82785376e-01 1.01235644e-02 0.0
7.51535624e-01 2.00000000e-03 0.0
8.19509369e-01 3.71813747e-02 0.0
7.99202245e-01 2.00000000e-03 0.0
7.70558913e-01 2.00000000e-03 0.0
8.39609279e-01 6.22904113e-03 0.0
8.03479859e-01 2.00000000e-03 0.0
8.67311198e-01 2.00000000e-03 0.0
9.19062416e-01 2.00000000e-03 0.0
8.86615128e-01 2.21687851e-02 0.0
8.00343513e-01 2.00000000e-03 0.0
8.43988125e-01 2.93552995e-02 0.0
9.16326346e-01 5.72106663e-03 0.0
9.29879301e-01 2.00000000e-03 0.0
8.97717857e-01 2.00000000e-03 0.0
9.80883971e-01 2.00000000e-03 0.0
9.26079163e-01 2.00000000e-03 0.0
9.60361218e-01 2.00000000e-03 0.0
8.87954239e-01 2.00000000e-03 0.0
9.25771395e-01 2.00000000e-03 0.0
9.51591604e-01 2.70389157e-02 0.0
9.76546051e-01 2.00000000e-03 0.0
9.16685902e-01 2.24133562e-02 0.0
9.64633545e-01 3.49410890e-02 0.0
9.05527839e-01 2.78802103e-02 0.0
9.98000000e-01 4.18369655e-02 0.0
9.97038876e-01 5.36432050e-02 0.0
2.00000000e-03 2.00000000e-03 0.0
6.08904938e-02 2.00000000e-03 0.0
2.88154808e-02 2.00000000e-03 0.0
2.00000000e-03 2.00000000e-03 0.0
2.00000000e-03 1.64871334e-02 0.0
4.85886701e-02 2.00000000e-03 0.0
5.05348168e-02 2.00000000e-03 0.0
7.99635007e-03 2.00000000e-03 0.0
1.04105438e-01 2.00000000e-03 0.0
7.26866166e-02 6.71741756e-02 0.0
1.31868100e-01 3.46691121e-02 0.0
7.39879972e-02 1.79299523e-02 0.0
9.29734716e-02 2.36181132e-02 0.0
1.26719390e-01 3.82600576e-03 0.0
2.29996234e-01 2.00000000e-03 0.0
1.42378431e-01 2.00000000e-03 0.0
1.67531060e-01 5.30493442e-02 0.0
9.45516448e-02 5.25696072e-03 0.0
1.63692645e-01 2.00000000e-03 0.0
1.92759402e-01 8.75290498e-02 0.0
2.54602367e-01 4.99791443e-03 0.0
1.39291238e-01 8.60300563e-02 0.0
1.68874413e-01 7.56006945e-02 0.0
1.86302379e-01 2.60972059e-02 0.0
1.97358306e-01 4.29531468e-02 0.0
2.25761243e-01 2.56120000e-02 0.0
1.90957010e-01 4.15532682e-02 0.0
2.17045627e-01 2.53335030e-02 0.0
2.67386998e-01 5.39944618e-02 0.0
2.32473223e-01 2.00000000e-03 0.0
2.28292379e-01 2.51215220e-02 0.0
3.22534566e-01 7.75404917e-02 0.0
3.07643391e-01 2.00000000e-03 0.0
2.85713364e-01 3.29034780e-02 0.0
3.07220336e-01 4.91423414e-02 0.0
3.34330724e-01 5.75698404e-02 0.0
4.03261432e-01 8.55162303e-03 0.0
3.99746039e-01 4.57082293e-02 0.0
3.06531757e-01 2.00000000e-03 0.0
3.70992078e-01 2.00000000e-03 0.0
3.19976544e-01 8.71453430e-03 0.0
3.23093008e-01 5.65774151e-02 0.0
2.52124130e-01 2.00000000e-03 0.0
3.18780068e-01 2.00000000e-03 0.0
4.49285511e-01 3.26616692e-02 0.0
3.27151003e-01 2.00000000e-03 0.0
4.06779276e-01 8.31926156e-03 0.0
3.78423293e-01 2.63560280e-02 0.0
4.77974596e-01 7.12366458e-02 0.0
5.20755236e-01 1.34689028e-01 0.0
3.84667268e-01 2.35736744e-02 0.0
4.62215373e-01 2.00000000e-03 0.0
3.94738582e-01 2.46536612e-02 0.0
5.47361194e-01 2.54250665e-02 0.0
4.29979699e-01 2.00000000e-03 0.0
5.33042647e-01 1.05156543e-01 0.0
4.20580735e-01 1.59353145e-02 0.0
4.46729887e-01 5.78861450e-02 0.0
4.91653574e-01 1.99418404e-02 0.0
4.84203230e-01 2.00000000e-03 0.0
4.04367481e-01 2.00000000e-03 0.0
4.73157910e-01 1.50059368e-02 0.0
4.84865257e-01 2.00000000e-03 0.0
5.38102208e-01 2.00000000e-03 0.0
5.99974219e-01 2.01165528e-02 0.0
4.53937052e-01 3.12757375e-02 0.0
5.00259566e-01 2.00000000e-03 0.0
6.53778104e-01 1.85413007e-02 0.0
5.45174573e-01 8.34263089e-02 0.0
6.53866847e-01 7.81630906e-02 0.0
6.07779184e-01 2.00000000e-03 0.0
5.15767517e-01 2.00000000e-03 0.0
6.28375105e-01 4.94399591e-02 0.0
5.99472012e-01 1.04398915e-02 0.0
5.69955629e-01 3.32477615e-02 0.0
5.65781858e-01 2.00000000e-03 0.0
6.00373701e-01 7.21390809e-02 0.0
6.51128984e-01 2.00000000e-03 0.0
6.49254330e-01 9.69529927e-03 0.0
7.09602244e-01 3.02360079e-02 0.0
7.19324785e-01 2.00000000e-03 0.0
7.22737067e-01 2.00000000e-03 0.0
6.83627272e-01 2.13864726e-02 0.0
6.59750187e-01 2.00000000e-03 0.0
7.52708501e-01 2.83740096e-02 0.0
7.22812392e-01 4.88013602e-02 0.0
7.47869547e-01 2.00000000e-03 0.0
7.86377724e-01 3.09117506e-02 0.0
6.87717056e-01 2.00000000e-03 0.0
7.39181732e-01 1.19771210e-02 0.0
7.74603913e-01 6.57022790e-02 0.0
8.57398880e-01 2.51950897e-02 0.0
6.41352605e-01 2.25936315e-02 0.0
7.62915971e-01 8.88344397e-02 0.0
7.41351730e-01 8.30140809e-02 0.0
8.62656316e-01 5.69122112e-02 0.0
7.83978056e-01 4.92362062e-02 0.0
8.51584572e-01 2.00000000e-03 0.0
8.55976197e-01 2.00000000e-03 0.0
8.94175478e-01 7.34292110e-02 0.0
9.24940488e-01 3.09969976e-03 0.0
8.98304356e-01 2.00000000e-03 0.0
9.02796792e-01 3.06818773e-03 0.0
9.45225437e-01 2.64844977e-02 0.0
8.75753618e-01 1.16538933e-02 0.0
8.11389716e-01 1.75449803e-02 0.0
9.15685686e-01 2.00000000e-03 0.0
9.98000000e-01 8.78713739e-03 0.0
9.37369173e-01 2.00000000e-03 0.0
8.71651814e-01 2.00000000e-03 0.0
8.90270280e-01 3.15373681e-02 0.0
8.53918383e-01 2.00000000e-03 0.0
9.60697974e-01 9.02946344e-03 0.0
9.78290119e-01 2.00000000e-03 0.0
9.38141274e-01 2.00000000e-03 0.0
8.86221917e-01 1.92516232e-02 0.0
9.56481253e-01 4.79980679e-02 0.0
9.98000000e-01 1.97240148e-02 0.0
9.80876618e-01 2.00537278e-02 0.0
9.50853585e-01 4.51555863e-02 0.0
1.32630236e-02 9.91263775e-02 0.0
2.00000000e-03 2.00000000e-03 0.0
3.21473566e-02 5.45087276e-02 0.0
8.37357001e-02 7.31100886e-02 0.0
1.82276498e-02 2.00000000e-03 0.0
1.78573464e-02 1.51389008e-02 0.0
1.18954523e-02 2.00000000e-03 0.0
6.87323595e-02 2.00000000e-03 0.0
5.95790390e-02 3.96151920e-02 0.0
3.63214533e-02 8.53534005e-02 0.0
6.44510105e-02 2.67696017e-02 0.0
1.35222258e-01 5.07669934e-02 0.0
1.79582656e-01 2.00000000e-03 0.0
1.68165251e-01 6.94678569e-02 0.0
1.84197894e-01 6.81633731e-02 0.0
1.38911872e-01 4.15418690e-02 0.0
1.69049335e-01 6.84551599e-02 0.0
1.43032975e-01 5.99443766e-02 0.0
1.52372661e-01 2.00000000e-03 0.0
1.91359237e-01 2.13519577e-02 0.0
1.30960927e-01 2.00000000e-03 0.0
2.48222859e-01 5.77041540e-02 0.0
1.50077450e-01 3.08584615e-02 0.0
2.40854450e-01 2.00000000e-03 0.0
1.78384560e-01 1.95967618e-02 0.0
1.57629149e-01 1.76498318e-02 0.0
2.04544962e-01 2.27245185e-02 0.0
2.33248236e-01 6.29680194e-02 0.0
2.03081619e-01 2.00000000e-03 0.0
1.64011219e-01 7.74042526e-02 0.0
2.56103179e-01 1.23212020e-01 0.0
2.86527758e-01 7.41640969e-02 0.0
3.50949932e-01 4.28718533e-02 0.0
2.88776447e-01 8.00952937e-03 0.0
3.35808314e-01 2.00000000e-03 0.0
2.99424794e-01 3.81492609e-02 0.0
3.42160308e-01 8.93059430e-02 0.0
3.22292362e-01 5.97892952e-02 0.0
3.69837788e-01 5.81443577e-02 0.0
3.70484855e-01 2.00000000e-03 0.0
3.91635694e-01 2.60288548e-02 0.0
4.25915057e-01 1.14414583e-01 0.0
2.72726250e-01 4.80569945e-02 0.0
3.31691719e-01 2.34456622e-02 0.0
4.18119730e-01 1.20478517e-01 0.0
3.42912188e-01 5.49337703e-02 0.0
3.80897350e-01 8.32636705e-02 0.0
4.08125317e-01 8.11886874e-02 0.0
4.19844925e-01 2.00000000e-03 0.0
3.53716296e-01 2.73995590e-03 0.0
4.63466755e-01 2.00000000e-03 0.0
[...]
CELL_DATA 14989
SCALARS z float 1
LOOKUP_TABLE default
2.05851477e+00
2.97667037e+00
2.15866325e+00
2.08325070e+00
2.08325070e+00
1.27778976e+01
2.23739349e+00
5.80720491e+00
8.40222495e+00
3.44455498e+00
4.52962583e+00
3.71185327e+00
5.12773250e+00
4.92121841e+00
7.36047517e+00
2.97667037e+00
4.92529794e+00
4.37013441e+00
6.78421450e+00
1.10774741e+01
3.05283568e+00
9.62256200e+00
9.87532266e+00
9.87532266e+00
5.39655034e+00
1.56690104e+01
1.39724628e+01
9.62256200e+00
7.32387046e+00
6.84876882e+00
1.85563798e+01
9.34392727e+00
4.29658632e+00
7.05634397e+00
6.43875488e+00
6.43875488e+00
6.59003163e+00
4.72069248e+00
5.66334911e+00
5.66334911e+00
7.12015097e+00
4.73222825e+00
2.56210645e+01
4.88679346e+00
4.88679346e+00
5.46803646e+00
3.44455498e+00
6.24212531e+00
3.32608441e+00
8.17751025e+00
6.66014031e+00
2.23395850e+00
2.23395850e+00
2.66335381e+00
2.96550887e+00
2.96550887e+00
3.20284687e+00
9.06283697e+00
2.10280120e+01
3.91288251e+00
8.72390996e+00
3.96310392e+00
3.06673421e+00
6.83648993e+00
4.06067508e+00
4.06067508e+00
2.53345628e+00
7.89983420e+00
4.42755021e+00
3.82775914e+00
3.57910395e+00
2.96865633e+00
3.36596087e+00
5.26222232e+00
5.19026866e+00
1.10774741e+01
6.78421450e+00
6.36830512e+00
7.89954762e+00
3.50615992e+00
1.02124157e+01
3.92067371e+00
3.16106972e+00
3.28999423e+00
8.23578762e+00
4.74830252e+00
4.74830252e+00
3.28395588e+00
4.59634020e+00
1.38134931e+01
5.40462363e+00
4.59634020e+00
4.17926844e+00
5.37128766e+00
1.27275100e+01
8.36671121e+00
3.86769567e+00
4.39991388e+00
4.06315055e+00
8.11597437e+00
1.61289895e+01
1.08616582e+01
8.56670307e+00
4.29658632e+00
1.21865138e+01
4.72069248e+00
5.36144633e+00
7.38861741e+00
5.63732914e+00
7.02335518e+00
5.36144633e+00
9.81633159e+00
7.66152222e+00
2.58702246e+01
4.34939731e+00
4.24652307e+00
2.36633397e+00
2.36633397e+00
4.34939731e+00
5.62800528e+00
1.06050957e+01
2.59977743e+00
5.43689120e+00
5.43689120e+00
6.01813080e+00
4.75646402e+00
9.41407989e+00
6.29515880e+00
4.04915500e+00
4.04915500e+00
6.59003163e+00
7.44170477e+00
5.87384952e+00
7.12015097e+00
9.20006082e+00
2.92934753e+00
1.01126650e+01
6.55463306e+00
9.64673443e+00
8.41817826e+00
7.11060141e+00
5.16287521e+00
6.31143981e+00
6.31143981e+00
4.05419927e+00
5.51523694e+00
6.18433816e+00
2.33460897e+00
2.94399196e+00
4.12944359e+00
7.42810368e+00
7.42810368e+00
3.80997911e+00
1.44043450e+01
3.42544288e+00
6.66014031e+00
4.24219143e+00
4.44613201e+00
1.36956451e+01
5.13565035e+00
4.93324880e+00
5.07018437e+00
4.99091839e+00
5.76366487e+00
5.76366487e+00
4.99091839e+00
7.72761103e+00
6.74694723e+00
4.52962583e+00
7.72761103e+00
5.87313338e+00
3.90050623e+00
3.90050623e+00
8.61560848e+00
3.32608441e+00
9.23677529e+00
4.01266644e+00
4.01401999e+00
4.01401999e+00
4.01266644e+00
7.26273512e+00
6.47846334e+00
5.60151084e+00
1.02285551e+01
5.82649070e+00
7.48640382e+00
4.92057152e+00
4.02983938e+00
4.92121841e+00
6.43569480e+00
5.04292948e+00
6.39302869e+00
6.30568377e+00
8.78516102e+00
2.73368848e+00
3.66797092e+00
4.45414574e+00
4.22682743e+00
4.71635137e+00
8.51255522e+00
3.97481412e+00
4.76954319e+00
4.54807432e+00
8.95869489e+00
2.83903346e+00
1.26114795e+01
1.26114795e+01
5.95278471e+00
1.31255013e+01
8.84420537e+00
5.88788478e+00
8.55412889e+00
2.72701325e+00
4.41187876e+00
4.41187876e+00
3.77978168e+00
1.10704689e+01
4.84134573e+00
2.82036324e+00
7.33736203e+00
8.86090287e+00
1.47907831e+01
6.00375121e+00
4.82183832e+00
5.73822742e+00
4.82183832e+00
5.99362356e+00
3.69068054e+00
4.35308444e+00
1.29214006e+01
1.55597568e+01
4.99217521e+00
5.76647937e+00
4.21816545e+00
9.33974091e+00
6.98251322e+00
8.47993671e+00
6.67938696e+00
6.49394786e+00
5.51225071e+00
3.01752315e+01
7.23071247e+00
3.90572579e+00
5.39748396e+00
6.26978818e+00
6.26978818e+00
5.68458080e+00
8.41503467e+00
8.41503467e+00
7.47595112e+00
5.38392160e+00
5.38392160e+00
5.04103911e+00
4.37013441e+00
3.13091569e+00
3.28576823e+00
6.96025282e+00
5.98010856e+00
5.63059692e+00
5.03523084e+00
5.45353172e+00
3.53717424e+00
3.36596087e+00
5.36420851e+00
5.18608090e+00
5.18608090e+00
1.37577154e+01
1.57921940e+01
1.59040435e+01
6.60220896e+00
1.49629313e+01
4.01915712e+00
3.32831805e+00
3.92067371e+00
9.83107236e+00
2.93607880e+00
2.14134088e+00
2.14134088e+00
3.27532785e+00
3.05283568e+00
8.23578762e+00
3.28999423e+00
3.72528138e+00
4.51388738e+00
3.72528138e+00
6.43788515e+00
3.28395588e+00
6.19818917e+01
1.88656227e+01
4.38306290e+00
1.16635737e+01
9.02641835e+00
3.86769567e+00
8.88984230e+00
6.49692648e+00
7.78271917e+00
5.18351361e+00
1.02927176e+01
4.75956729e+00
5.18351361e+00
6.03007343e+00
6.03007343e+00
6.47223441e+00
3.10081655e+00
6.71841217e+00
4.41956652e+00
4.41956652e+00
3.65543567e+00
3.65543567e+00
5.37601909e+00
6.28704476e+00
4.95341645e+00
5.31022317e+00
5.31022317e+00
3.17132049e+00
3.17132049e+00
4.11202888e+00
4.06315055e+00
1.05557016e+01
3.67336240e+00
1.08616582e+01
5.63957525e+00
8.56670307e+00
4.46730945e+00
5.69871491e+00
4.46730945e+00
5.63957525e+00
3.73807015e+00
5.56273116e+00
5.56273116e+00
3.67336240e+00
5.86353514e+00
4.95341645e+00
3.06483405e+00
4.12866456e+00
5.93817545e+00
5.93817545e+00
5.98403479e+00
7.07842436e+00
4.71037380e+00
5.47837082e+00
3.83012492e+00
3.39764279e+00
7.80526061e+00
3.83910176e+00
5.24408363e+00
4.21718922e+00
4.21718922e+00
3.48118694e+00
4.10533583e+00
4.34781261e+00
2.61795445e+00
2.61795445e+00
8.03350912e+00
2.37778288e+00
5.55194939e+00
3.75003184e+00
5.26828684e+00
4.71391735e+00
3.75003184e+00
4.95998558e+00
4.71391735e+00
2.97511616e+00
3.28510883e+00
4.24248665e+00
2.59977743e+00
7.30877342e+00
6.01813080e+00
4.61986163e+00
4.61986163e+00
1.16336706e+01
5.23775489e+00
1.55274760e+01
2.15611409e+01
1.72022333e+01
6.85029734e+01
7.61053640e+00
4.11874779e+00
4.11874779e+00
4.42309914e+00
1.20880425e+01
2.08124768e+01
5.82214942e+00
4.14173014e+00
4.14173014e+00
1.11572357e+01
7.43967309e+00
2.18847792e+00
2.56591283e+00
4.97333742e+00
4.92720463e+00
6.22935790e+00
4.92720463e+00
4.05419927e+00
6.22935790e+00
8.55670816e+00
3.63248861e+00
9.45279386e+00
3.79328507e+00
3.57594771e+00
6.15413633e+00
3.35703084e+00
3.35703084e+00
4.94976617e+00
9.44191275e+00
3.33740120e+00
7.92558029e+00
4.98048955e+00
9.56101452e+00
1.84369063e+01
1.36111689e+01
1.13106313e+01
4.98048955e+00
2.84239066e+00
4.38196765e+00
2.63839858e+00
2.20801248e+00
2.02705441e+00
2.02705441e+00
3.68502155e+00
5.54473178e+00
2.81401412e+00
7.00374422e+00
8.76663699e+00
6.81761033e+00
6.61643475e+00
4.62880986e+00
4.12944359e+00
9.80623319e+00
4.34063976e+00
7.37081427e+00
4.81487173e+00
4.81487173e+00
4.24219143e+00
3.95530152e+00
1.01555339e+01
3.95530152e+00
5.61393177e+00
6.81361642e+00
6.81361642e+00
2.90278880e+01
6.17663000e+00
1.43162111e+01
4.28036482e+00
4.28036482e+00
7.39818476e+00
4.44613201e+00
1.10540941e+01
4.98092670e+01
4.53839081e+00
8.69455381e+00
4.29699342e+00
4.29699342e+00
4.94239957e+00
2.18410236e+00
5.05485572e+00
6.57063995e+00
9.27833796e+00
9.27833796e+00
3.79946597e+00
1.14781225e+01
5.52381407e+00
5.52381407e+00
2.17965584e+01
9.77831210e+00
7.38125432e+00
7.38125432e+00
1.10578328e+01
6.10724650e+00
7.48640382e+00
4.68885928e+00
1.82229502e+01
6.25903217e+00
6.10724650e+00
1.51691315e+01
3.49013082e+00
3.49013082e+00
2.64977308e+00
3.00007469e+00
8.46430931e+00
5.39943986e+00
5.39943986e+00
5.61279230e+00
1.17351219e+01
1.07648510e+01
5.71554404e+00
5.96413612e+00
3.00007469e+00
9.62913490e+00
3.14659083e+00
2.20851344e+00
2.20851344e+00
8.61894097e+00
4.43595884e+00
3.64184522e+00
3.64184522e+00
5.44965754e+00
3.54125043e+00
5.50800416e+00
4.82466016e+00
6.30568377e+00
1.13680911e+01
4.50247575e+00
4.02162338e+00
4.02162338e+00
6.34105145e+00
2.79822445e+00
3.66797092e+00
6.88120991e+00
2.87502632e+00
5.12773250e+00
8.72020276e+00
2.56919699e+00
9.61288739e+00
4.96620133e+00
3.84713981e+00
9.20616832e+00
4.08222279e+00
2.81008327e+00
4.31604981e+00
3.19121503e+00
9.19137486e+00
1.20858023e+01
1.01995908e+01
6.15356542e+00
6.15356542e+00
4.11548353e+00
7.07994820e+00
3.67962945e+00
1.24930589e+01
4.54807432e+00
1.99819989e+01
4.31850676e+00
4.47960393e+00
1.85373892e+01
1.27578082e+01
4.81589782e+00
4.21816545e+00
4.28678475e+00
5.65907086e+00
5.79803881e+00
4.72861772e+00
3.73024233e+00
7.39585254e+00
7.08786739e+00
5.04292948e+00
3.73024233e+00
4.80428106e+00
4.80428106e+00
9.16660299e+00
3.39836203e+00
2.30235272e+00
2.30235272e+00
6.68508268e+00
1.23957327e+01
7.89000446e+00
5.79083399e+00
9.59749450e+00
3.35776984e+00
3.92208972e+00
2.68078371e+00
2.68078371e+00
3.70313986e+00
6.00538141e+00
1.02718775e+01
3.81403779e+00
3.81403779e+00
2.65875039e+00
9.70751265e+00
5.88788478e+00
7.30410663e+00
3.78820240e+00
3.58640740e+01
3.17340231e+00
3.17340231e+00
1.94378291e+01
1.94378291e+01
3.67610014e+00
3.67610014e+00
4.42563985e+00
3.79104911e+00
7.26937787e+00
3.71568539e+00
4.67217360e+00
3.01664011e+00
3.01664011e+00
8.71227943e+00
5.03196718e+00
1.40801782e+01
7.94356454e+00
7.45958934e+00
1.18107122e+01
4.65369632e+00
1.12110744e+01
2.37471764e+00
8.39840245e+00
2.42329511e+00
6.97426743e+00
1.79381672e+01
7.45958934e+00
2.42329511e+00
4.26026931e+00
4.07872024e+00
1.00150223e+01
1.46877553e+01
9.67543075e+00
6.33665089e+00
1.70325029e+01
9.10848983e+00
7.89503175e+00
8.27557025e+00
5.05438552e+00
3.98638842e+00
6.25320175e+00
3.98638842e+00
7.09595189e+00
6.48940764e+00
7.96916166e+00
7.12314417e+00
8.37143895e+00
8.37143895e+00
8.87565485e+00
9.75871296e+00
3.46205592e+00
8.49270638e+00
5.66411280e+00
2.55763610e+01
3.32009851e+00
1.17845731e+01
3.53959324e+00
9.93075742e+00
6.48380906e+00
7.98470107e+00
4.31331988e+00
6.21793586e+00
1.01862984e+01
6.72665436e+00
4.62308402e+00
8.39840245e+00
5.73822742e+00
5.22738319e+00
5.99576926e+00
5.99576926e+00
5.35223232e+00
5.35223232e+00
7.40574488e+00
3.69068054e+00
8.76254486e+00
1.13379017e+01
7.39757317e+00
1.13379017e+01
7.39757317e+00
2.99482864e+00
4.32848903e+00
6.75807781e+00
4.40743373e+00
1.30168574e+01
4.91266681e+00
1.32698867e+01
1.20094106e+01
4.76954319e+00
3.12095518e+00
3.72700085e+00
4.56121409e+00
4.56121409e+00
7.33300078e+00
3.75362897e+00
1.36224230e+01
7.12015311e+00
2.78834286e+00
2.78834286e+00
3.17225969e+00
1.21249359e+01
1.21249359e+01
6.32038299e+00
1.00497325e+01
8.87565485e+00
1.05125755e+01
7.18632842e+00
7.94560053e+00
4.77930599e+00
4.77930599e+00
5.89987212e+00
5.35081700e+00
3.86263969e+00
3.86263969e+00
5.00077866e+00
1.24532968e+01
4.47834585e+00
4.47834585e+00
5.56453134e+00
5.85132974e+00
6.39161840e+00
5.41734873e+00
5.33886260e+00
8.47993671e+00
5.45324329e+00
8.21240110e+00
9.63443604e+00
7.05169673e+00
1.44797819e+01
9.48422301e+00
7.64578779e+00
6.57840033e+00
3.88022430e+00
3.88022430e+00
4.65351715e+00
4.37800900e+00
8.11460309e+00
1.10298913e+01
7.59614707e+00
4.79458767e+00
6.84249958e+00
3.48322604e+00
5.58162857e+00
7.63236778e+00
4.39043177e+00
9.61085069e+00
7.23797931e+00
3.20328263e+00
8.57587634e+00
4.92529794e+00
5.00334912e+00
5.16150086e+00
5.11721381e+00
5.25525365e+00
5.42046934e+00
8.19044667e+00
7.41761130e+00
6.18182469e+00
6.62000605e+00
1.15936849e+01
1.74855849e+01
1.21315541e+01
2.62654342e+01
1.91002391e+01
3.78641104e+00
3.72252317e+00
3.62344606e+00
6.16130133e+00
5.99900812e+00
6.87709485e+00
6.82809831e+00
7.70821761e+00
4.86829481e+00
8.83247756e+00
5.07961728e+00
6.54755089e+00
6.95678279e+00
3.21362681e+00
3.51828062e+00
6.48206903e+00
1.21798196e+01
3.50615992e+00
5.39655034e+00
4.60421231e+01
4.31536496e+00
4.31536496e+00
1.67295356e+01
5.40462363e+00
1.05886259e+01
1.59040435e+01
9.49709430e+00
5.39626140e+00
5.39626140e+00
7.89954762e+00
1.91299674e+01
8.72906624e+00
8.72906624e+00
6.91433095e+00
4.48583142e+00
1.14753279e+01
1.62499672e+01
3.07211351e+00
3.34884413e+00
6.86604471e+00
3.90487240e+00
4.76317437e+00
6.71420971e+00
3.07211351e+00
4.48583142e+00
3.52554520e+00
5.39220085e+00
3.34884413e+00
1.87512402e+01
3.90487240e+00
5.90080891e+00
5.75289081e+00
1.10335303e+01
2.95941521e+00
3.05164387e+00
2.51337070e+01
4.60467510e+00
4.72097846e+00
5.10006959e+00
4.57263660e+00
7.45679468e+00
5.07547843e+00
5.24434279e+00
4.58539191e+00
8.93528187e+00
1.08911500e+01
7.78271917e+00
5.46502201e+00
5.46502201e+00
4.08044119e+00
4.08044119e+00
5.13777545e+00
8.99652415e+00
1.08139733e+01
5.59751986e+00
5.39166242e+00
2.94739179e+00
9.52782814e+00
9.52782814e+00
4.58539191e+00
4.56809935e+00
7.86018895e+00
7.19632010e+00
4.56809935e+00
1.06087790e+01
8.33141585e+00
5.27316498e+00
1.03945019e+01
5.24434279e+00
4.69120329e+00
1.62981175e+01
1.00825895e+01
8.74741905e+00
4.50450173e+00
9.98191054e+00
2.96865633e+00
8.73112475e+00
5.50793422e+00
7.49129215e+00
2.76566775e+00
1.83933624e+01
8.34392014e+00
6.33985016e+00
7.05405938e+00
7.05405938e+00
3.33105258e+00
3.64375189e+00
4.62581155e+00
8.34089490e+00
4.24377674e+00
8.50725865e+00
5.10622870e+00
4.13097005e+00
1.03379827e+01
1.79131694e+01
3.80003313e+00
4.57185392e+00
4.47804222e+00
6.15738122e+00
4.71037380e+00
5.47837082e+00
6.15738122e+00
5.43349236e+00
1.07199381e+01
3.39764279e+00
7.01706711e+00
3.92798423e+00
1.02951225e+01
3.92798423e+00
6.81082195e+00
9.22801376e+00
6.00854535e+00
6.00854535e+00
4.12866456e+00
9.96912494e+00
3.47606497e+00
9.79351626e+00
5.51682459e+00
3.48118694e+00
6.45611872e+00
7.39646556e+00
3.83910176e+00
7.32968824e+00
9.21726924e+00
4.47480785e+01
1.22656753e+01
3.72627808e+00
9.12153756e+00
2.99482864e+00
4.90943258e+00
5.48042122e+00
3.77220297e+00
4.33152303e+00
4.41546785e+00
2.70594788e+00
4.53182767e+00
6.46724974e+00
2.37778288e+00
4.90390380e+00
2.50088359e+00
2.97511616e+00
2.81262585e+00
4.73222825e+00
5.67670784e+00
6.66970911e+00
8.67818831e+00
1.01632970e+01
3.54959722e+00
4.16915596e+00
3.61846697e+00
2.60480147e+00
4.50345217e+00
5.23775489e+00
4.50345217e+00
5.19621193e+00
7.27751217e+00
7.27751217e+00
8.08230629e+00
4.72903764e+00
4.72903764e+00
3.83144274e+01
7.74170824e+00
3.31747222e+00
3.31747222e+00
4.66071782e+00
6.85029734e+01
3.94869485e+00
3.94869485e+00
6.11946245e+00
6.11946245e+00
1.94628302e+01
1.68757926e+01
3.61781511e+00
5.61141330e+00
4.93020130e+00
7.43967309e+00
9.51403311e+00
2.56591283e+00
8.76842935e+00
6.11888249e+00
8.76842935e+00
2.23921139e+01
4.99547796e+00
4.05059870e+00
4.09253956e+00
6.53442281e+00
6.54398851e+00
5.34574271e+00
2.89430318e+00
1.01369268e+01
1.02420394e+01
1.49164618e+01
8.38316277e+00
1.26783740e+01
4.37565560e+00
4.14374889e+00
4.08326651e+00
4.08326651e+00
3.57594771e+00
4.17721670e+00
1.21052454e+01
3.79328507e+00
2.18847792e+00
6.70120800e+00
4.98132937e+00
3.15351148e+00
3.15351148e+00
9.56101452e+00
6.84341617e+00
8.01698719e+00
6.72673529e+00
6.72673529e+00
1.01126650e+01
1.29216533e+01
3.27485135e+00
4.57011643e+00
6.83466835e+00
3.27485135e+00
3.10387654e+00
3.49600317e+00
3.23080639e+00
3.23080639e+00
5.46555274e+00
9.38997784e+00
5.46555274e+00
9.38997784e+00
8.57426192e+00
6.69082494e+00
4.28793696e+00
4.14005627e+00
5.70964146e+00
1.31308881e+01
4.31841166e+00
4.55092107e+00
4.14751980e+00
3.90726994e+00
1.38879675e+01
6.27607381e+00
1.72222295e+01
3.57597904e+01
7.27580376e+00
3.05765331e+00
3.01807641e+00
3.01807641e+00
2.60787919e+00
2.73707362e+00
4.92529629e+00
3.62750958e+00
1.08762056e+01
4.81426023e+00
5.20250469e+00
3.81350524e+00
3.85144083e+00
7.77833089e+00
8.52571219e+00
1.17958283e+01
3.68502155e+00
3.66507544e+00
4.28488771e+00
7.46916593e+00
8.14530684e+00
4.50414399e+00
2.87602311e+00
4.01688325e+00
2.87602311e+00
4.64931473e+00
5.79420983e+00
4.01688325e+00
5.79420983e+00
4.69636751e+00
7.71223113e+00
8.47067456e+00
9.85831702e+00
4.82900233e+00
1.05550535e+01
9.76167448e+00
3.35351885e+00
2.48559376e+00
3.94887798e+00
4.06278885e+00
5.40753328e+00
5.40753328e+00
4.06278885e+00
6.74694723e+00
1.79201217e+01
6.47846334e+00
1.19580847e+01
3.23644666e+00
6.00765355e+01
5.09199145e+00
2.52541659e+01
3.55216192e+00
3.55216192e+00
6.48840919e+00
6.48840919e+00
2.96370220e+00
2.96370220e+00
4.84487540e+00
6.41616779e+00
5.60470794e+00
3.81697512e+00
6.23627322e+00
6.23627322e+00
2.37811116e+01
7.83793521e+00
4.75814989e+00
8.01418753e+00
2.74003436e+00
1.23672974e+01
8.36032024e+00
1.06944987e+01
4.76233861e+00
5.60634535e+01
1.38496818e+01
3.03654908e+00
2.98549345e+00
8.14239634e+00
8.93204011e+00
6.28096688e+00
6.68178810e+00
4.05695052e+00
4.05695052e+00
4.31007018e+00
3.58854312e+01
4.31007018e+00
1.06118825e+01
3.92466385e+00
1.44036355e+01
6.09005826e+00
5.95604637e+00
4.28898549e+00
3.68608463e+00
8.54725993e+00
5.61279230e+00
1.03650226e+01
6.31173597e+00
5.34367628e+00
3.54125043e+00
1.70109760e+01
1.70109760e+01
1.08193818e+01
3.14659083e+00
7.01133603e+00
4.69415365e+00
2.56997552e+00
4.49377295e+00
3.83185280e+00
3.83185280e+00
4.02983938e+00
5.52173034e+00
4.45663704e+00
4.16881282e+00
4.16881282e+00
1.04336894e+01
3.67977924e+00
3.67977924e+00
9.54554506e+00
4.85843922e+00
5.70074751e+00
3.11089266e+00
3.11089266e+00
9.06283697e+00
4.17690701e+00
6.90955552e+00
5.47701258e+00
3.95640432e+00
3.95640432e+00
2.79822445e+00
5.85396514e+00
6.51993281e+00
7.45240778e+00
1.00442605e+01
4.45414574e+00
6.68415627e+00
6.72516936e+00
7.07516972e+00
8.88722890e+00
8.88722890e+00
1.18136533e+01
5.12865275e+00
4.27456022e+00
4.29525561e+00
5.79083399e+00
6.39406248e+00
6.39406248e+00
5.53681062e+00
5.53681062e+00
9.23739842e+00
4.45175156e+00
1.22596771e+01
2.49220922e+01
1.61137013e+01
4.08222279e+00
9.89224535e+00
3.56562915e+00
5.92462846e+00
6.97643203e+00
7.64478059e+00
1.14014442e+01
4.44219443e+00
3.37595603e+01
1.09136831e+01
1.09136831e+01
5.63649796e+00
1.20601378e+01
3.29109521e+01
2.55133401e+01
6.77748797e+00
4.20307776e+00
4.46372716e+00
4.65415152e+00
7.99927349e+00
4.46372716e+00
8.34214752e+00
5.97132925e+00
9.88220131e+00
1.57996050e+01
2.35589345e+01
6.20223341e+00
5.19170752e+00
3.37845509e+00
5.65806754e+00
3.67962945e+00
4.46401620e+00
4.70267354e+00
3.40318846e+00
1.08630691e+01
4.20320655e+00
3.40318846e+00
4.20320655e+00
4.31634753e+00
4.67422243e+00
4.86168762e+00
9.01013280e+00
4.38898233e+00
4.38898233e+00
6.77821637e+00
4.14262601e+00
3.37406092e+00
2.45402180e+00
1.03875394e+01
3.71568539e+00
7.52978865e+00
3.89419266e+00
4.29158700e+00
8.98423273e+00
9.51872319e+00
4.92485293e+00
5.18535086e+00
8.50221523e+00
1.50763571e+01
4.31359098e+00
4.81589782e+00
1.13465899e+01
5.65907086e+00
6.63812892e+00
8.66368215e+00
4.01352109e+00
4.01352109e+00
5.22911387e+00
3.97481412e+00
5.79803881e+00
9.31087349e+00
6.11346865e+00
6.04142797e+00
6.62424997e+00
8.75198924e+00
8.75198924e+00
3.36528506e+00
5.98246749e+00
5.98246749e+00
3.13131562e+00
3.26683855e+00
3.13131562e+00
4.33601964e+00
8.14526171e+00
3.17020282e+00
2.67423204e+00
5.99262729e+00
7.00894546e+00
4.79750390e+00
5.94157341e+00
2.67423204e+00
1.12971149e+01
3.96226931e+00
2.65773497e+00
1.33747505e+01
3.36528506e+00
4.46909580e+00
7.36246097e+00
4.05011329e+01
5.07960548e+00
5.07960548e+00
1.23957327e+01
7.51899682e+00
3.74069431e+00
8.77634318e+00
7.57316429e+00
3.26000895e+01
3.01217088e+01
1.06562889e+01
1.06562889e+01
9.98130868e+00
1.28857072e+01
8.97913409e+00
9.92855429e+00
5.39149021e+00
6.09771313e+00
6.38820162e+00
1.88316377e+01
4.83500035e+00
4.67846983e+00
2.31948198e+01
4.53351785e+00
4.83500035e+00
9.80861713e+00
4.47960393e+00
9.59749450e+00
3.57126172e+00
3.87781915e+00
1.08800965e+01
1.74602876e+01
3.57126172e+00
7.09507802e+00
3.77577631e+00
2.61105081e+00
5.59557178e+00
1.02718775e+01
6.78592765e+00
1.13150384e+01
5.56563206e+00
1.36901340e+01
3.52384377e+00
3.69330032e+00
7.18676124e+00
6.04262601e+00
3.19361995e+00
7.69944634e+00
8.45607735e+00
8.45607735e+00
3.74403712e+00
4.33809353e+00
5.99252041e+00
4.44219443e+00
3.03169085e+00
3.62006190e+00
1.82869692e+01
3.83881370e+00
3.83881370e+00
4.22639895e+00
4.11548353e+00
4.75948837e+00
2.72701325e+00
3.79104911e+00
4.82846703e+00
3.41079933e+00
3.41079933e+00
4.93685869e+00
3.25767174e+01
7.55316829e+00
3.41638466e+00
4.13525467e+00
4.13525467e+00
5.14200835e+00
3.73623418e+00
1.37183892e+01
1.47210648e+01
3.51143482e+00
4.07361784e+00
9.25275236e+00
4.83247627e+00
6.07601444e+00
7.23404807e+00