# vtk DataFile Version 2.0
z-phase-transition mesh
ASCII
DATASET UNSTRUCTURED_GRID

POINTS 8640 float
2.05155573e-01 2.00000000e-03 0.0
8.84426528e-01 2.00000000e-03 0.0
7.45240485e-01 7.16566569e-01 0.0
1.06442248e-01 2.69353263e-01 0.0
2.00000000e-03 1.69566201e-02 0.0
2.00000000e-03 2.00000000e-03 0.0
2.00000000e-03 2.00000000e-03 0.0
8.80843375e-02 2.00000000e-03 0.0
2.00000000e-03 2.00000000e-03 0.0
7.43234472e-01 2.00000000e-03 0.0
2.00000000e-03 9.98000000e-01 0.0
2.00000000e-03 2.00000000e-03 0.0
2.52555420e-01 9.85237622e-01 0.0
9.98000000e-01 2.00000000e-03 0.0
4.53282052e-01 2.00000000e-03 0.0
1.91426004e-01 2.00000000e-03 0.0
2.00000000e-03 2.00000000e-03 0.0
9.98000000e-01 2.00000000e-03 0.0
2.83653289e-01 9.80501448e-02 0.0
2.00000000e-03 3.51529921e-01 0.0
2.00000000e-03 4.63232441e-01 0.0
1.56129294e-01 6.12818577e-01 0.0
7.53650577e-01 2.00000000e-03 0.0
6.22259639e-01 7.24331227e-01 0.0
9.08996608e-01 2.00000000e-03 0.0
2.00000000e-03 2.00000000e-03 0.0
2.00000000e-03 2.74001611e-01 0.0
3.75884803e-02 2.63485027e-01 0.0
3.04234013e-01 2.00000000e-03 0.0
3.16638398e-01 9.98000000e-01 0.0
3.06283143e-01 2.00000000e-03 0.0
7.44071594e-01 4.87263155e-01 0.0
2.00000000e-03 2.00000000e-03 0.0
2.00000000e-03 2.00000000e-03 0.0
6.30638359e-01 2.00000000e-03 0.0
2.00000000e-03 2.97559286e-01 0.0
1.45245498e-01 2.00000000e-03 0.0
2.00000000e-03 2.00000000e-03 0.0
9.98000000e-01 2.00000000e-03 0.0
3.67541708e-01 2.00000000e-03 0.0
9.90869298e-01 5.31129376e-01 0.0
9.98000000e-01 2.00000000e-03 0.0
7.90432958e-01 2.00000000e-03 0.0
9.98000000e-01 7.98031040e-01 0.0
9.88080231e-01 7.18715624e-01 0.0
5.32269021e-01 2.00000000e-03 0.0
2.00000000e-03 2.00000000e-03 0.0
2.00000000e-03 9.98000000e-01 0.0
8.06116368e-01 2.00000000e-03 0.0
2.00000000e-03 2.00000000e-03 0.0
2.97478984e-01 2.00000000e-03 0.0
8.64579587e-01 5.58488917e-01 0.0
3.46587833e-01 1.51822655e-01 0.0
2.00000000e-03 3.80718803e-02 0.0
2.76981525e-01 3.95628803e-01 0.0
2.00000000e-03 2.00000000e-03 0.0
7.15066119e-01 2.00000000e-03 0.0
9.98000000e-01 1.42424153e-01 0.0
2.50093569e-01 4.73286810e-01 0.0
9.98000000e-01 9.98000000e-01 0.0
9.98000000e-01 5.45065586e-01 0.0
5.29003732e-01 6.93761697e-01 0.0
4.37348881e-01 2.00000000e-03 0.0
3.71949971e-01 2.00000000e-03 0.0
9.98000000e-01 2.00000000e-03 0.0
9.98000000e-01 2.00000000e-03 0.0
5.41264442e-01 9.98000000e-01 0.0
1.34871047e-01 6.03545297e-01 0.0
2.99312427e-02 4.16270653e-01 0.0
9.98000000e-01 2.00000000e-03 0.0
2.00000000e-03 2.00000000e-03 0.0
9.98000000e-01 9.93927732e-02 0.0
8.97432088e-01 1.84481202e-01 0.0
8.78853327e-01 4.33333050e-01 0.0
2.00000000e-03 2.00000000e-03 0.0
5.37580444e-01 2.00000000e-03 0.0
2.00000000e-03 2.00000000e-03 0.0
5.49668264e-01 6.05599788e-01 0.0
9.98000000e-01 2.00000000e-03 0.0
2.00000000e-03 2.89709485e-01 0.0
2.00000000e-03 1.33425024e-01 0.0
2.00000000e-03 4.59062840e-01 0.0
9.98000000e-01 3.66813610e-01 0.0
8.83273148e-01 5.81958551e-01 0.0
9.98000000e-01 2.28127977e-02 0.0
9.98000000e-01 4.19043070e-01 0.0
7.47687088e-01 1.12542045e-01 0.0
3.84819081e-01 6.70823197e-01 0.0
9.98000000e-01 2.00000000e-03 0.0
2.49147940e-01 8.76019233e-01 0.0
9.98000000e-01 2.00000000e-03 0.0
9.98000000e-01 2.00000000e-03 0.0
6.17989510e-01 2.00000000e-03 0.0
9.98000000e-01 2.00000000e-03 0.0
7.75353660e-01 2.00000000e-03 0.0
9.98000000e-01 1.88059206e-01 0.0
8.02723040e-01 4.30907020e-01 0.0
9.98000000e-01 2.00000000e-03 0.0
2.00000000e-03 3.18317347e-01 0.0
7.35232553e-01 9.83802400e-01 0.0
9.98000000e-01 2.00000000e-03 0.0
5.66004493e-01 9.98000000e-01 0.0
8.07458598e-01 2.00000000e-03 0.0
2.00000000e-03 2.00000000e-03 0.0
9.98000000e-01 9.98000000e-01 0.0
9.98000000e-01 2.00000000e-03 0.0
9.98000000e-01 2.00000000e-03 0.0
9.98000000e-01 6.71209204e-01 0.0
8.05818317e-01 3.62994729e-01 0.0
9.98000000e-01 3.06719773e-01 0.0
9.98000000e-01 2.00000000e-03 0.0
9.98000000e-01 2.00000000e-03 0.0
5.87013307e-01 4.92755300e-02 0.0
9.98000000e-01 2.97419149e-01 0.0
4.70652247e-01 2.00000000e-03 0.0
9.98000000e-01 5.26707669e-01 0.0
9.34681147e-01 2.00000000e-03 0.0
9.98000000e-01 4.60088527e-01 0.0
2.00000000e-03 6.23166956e-01 0.0
9.06193418e-01 9.98000000e-01 0.0
2.00000000e-03 2.00000000e-03 0.0
4.49409551e-01 8.66538927e-01 0.0
6.88747150e-02 3.82259750e-01 0.0
1.40678830e-01 2.00000000e-03 0.0
6.14927889e-01 8.26910130e-01 0.0
5.91143603e-01 5.22647589e-01 0.0
1.86966016e-01 4.75684957e-01 0.0
2.00000000e-03 6.97122737e-01 0.0
2.04438285e-01 2.00000000e-03 0.0
4.55529484e-01 2.00000000e-03 0.0
1.37955213e-01 5.97294769e-01 0.0
2.00000000e-03 5.79893669e-01 0.0
8.16860490e-01 5.58988742e-02 0.0
2.00000000e-03 7.04962110e-01 0.0
3.80928278e-02 2.00261385e-01 0.0
6.57084088e-01 2.00000000e-03 0.0
9.01586247e-01 2.00000000e-03 0.0
1.64652368e-01 2.00000000e-03 0.0
2.00000000e-03 2.00000000e-03 0.0
9.65968312e-01 2.00000000e-03 0.0
2.00000000e-03 8.80046261e-01 0.0
2.00000000e-03 2.12467427e-01 0.0
8.11443622e-01 1.17544082e-01 0.0
2.98457850e-02 2.00000000e-03 0.0
5.94756501e-01 4.75821595e-02 0.0
2.44916708e-01 2.00000000e-03 0.0
2.62322049e-02 6.74099654e-01 0.0
9.47447710e-01 2.00000000e-03 0.0
9.98000000e-01 2.00000000e-03 0.0
3.46714071e-01 2.00000000e-03 0.0
5.13676214e-01 9.98000000e-01 0.0
7.00997376e-03 2.00000000e-03 0.0
2.14483835e-01 2.00000000e-03 0.0
9.33072245e-01 2.00000000e-03 0.0
8.41632322e-01 5.07507880e-01 0.0
2.03159403e-02 2.00000000e-03 0.0
8.74990352e-02 7.36387524e-01 0.0
2.00000000e-03 2.00000000e-03 0.0
2.00000000e-03 2.00000000e-03 0.0
8.06462587e-01 2.00000000e-03 0.0
3.25554958e-01 6.49041935e-01 0.0
9.98000000e-01 2.00000000e-03 0.0
1.74258152e-01 2.00000000e-03 0.0
9.98000000e-01 9.52714422e-01 0.0
6.00774283e-01 7.04285437e-02 0.0
2.00000000e-03 6.20912070e-01 0.0
6.43611444e-02 2.00000000e-03 0.0
9.98000000e-01 2.98568599e-01 0.0
2.00000000e-03 2.75161807e-01 0.0
9.98000000e-01 2.38689504e-01 0.0
5.22220177e-01 2.00000000e-03 0.0
2.00000000e-03 3.84398595e-01 0.0
3.56734608e-01 1.54079341e-01 0.0
3.45932664e-01 5.20301797e-01 0.0
3.95808384e-01 2.00000000e-03 0.0
2.00000000e-03 2.00000000e-03 0.0
7.40850403e-01 2.00000000e-03 0.0
9.98000000e-01 9.98000000e-01 0.0
8.99582907e-01 2.49931576e-01 0.0
3.79978154e-02 9.98000000e-01 0.0
2.00000000e-03 6.74296324e-01 0.0
4.30351120e-01 2.00000000e-03 0.0
9.15534988e-01 2.00000000e-03 0.0
9.98000000e-01 8.74480329e-01 0.0
9.98000000e-01 2.00000000e-03 0.0
1.54593361e-01 4.02666848e-02 0.0
9.98000000e-01 3.89488003e-01 0.0
9.98000000e-01 2.00000000e-03 0.0
9.98000000e-01 1.61712588e-01 0.0
9.13402472e-01 2.00000000e-03 0.0
2.44566062e-01 2.00000000e-03 0.0
1.65717855e-01 1.97485652e-02 0.0
6.61750329e-01 2.76543272e-01 0.0
9.98000000e-01 2.00000000e-03 0.0
3.26580115e-01 2.00000000e-03 0.0
9.98000000e-01 2.00000000e-03 0.0
9.92908831e-01 2.00000000e-03 0.0
5.21652688e-01 2.00000000e-03 0.0
8.18407602e-01 3.09025595e-01 0.0
2.00000000e-03 2.00000000e-03 0.0
9.98000000e-01 2.00000000e-03 0.0
2.75868813e-01 2.98036554e-01 0.0
9.98000000e-01 2.00000000e-03 0.0
9.98000000e-01 2.00000000e-03 0.0
2.00000000e-03 2.00000000e-03 0.0
9.98000000e-01 1.45832887e-01 0.0
5.14114381e-01 2.76870281e-01 0.0
9.98000000e-01 2.00000000e-03 0.0
7.86775296e-01 5.56287222e-01 0.0
9.98000000e-01 5.07055461e-01 0.0
8.98970048e-01 2.00000000e-03 0.0
1.86084361e-01 4.67857200e-01 0.0
5.01255189e-01 2.00000000e-03 0.0
9.73278473e-01 2.00000000e-03 0.0
9.98000000e-01 2.00000000e-03 0.0
9.98000000e-01 2.00000000e-03 0.0
9.98000000e-01 8.29541593e-02 0.0
3.70341795e-01 2.00000000e-03 0.0
9.98000000e-01 2.00000000e-03 0.0
3.07516998e-01 5.92771041e-01 0.0
7.14338950e-01 3.14892087e-01 0.0
9.98000000e-01 2.00000000e-03 0.0
4.77413346e-01 2.00000000e-03 0.0
5.04383361e-01 2.00000000e-03 0.0
4.40964354e-01 1.45958187e-01 0.0
9.98000000e-01 2.00000000e-03 0.0
9.98000000e-01 2.00740941e-01 0.0
4.58499280e-01 2.00000000e-03 0.0
6.27010711e-01 6.52696852e-02 0.0
9.98000000e-01 2.00000000e-03 0.0
2.00000000e-03 7.75586751e-01 0.0
7.59683773e-01 9.98000000e-01 0.0
9.98000000e-01 2.00000000e-03 0.0
9.98000000e-01 1.41442614e-01 0.0
2.00000000e-03 2.00000000e-03 0.0
4.91316312e-01 8.35758726e-03 0.0
9.98000000e-01 2.00000000e-03 0.0
9.98000000e-01 3.49154032e-01 0.0
8.63297622e-01 2.00000000e-03 0.0
9.51834441e-02 8.71068310e-01 0.0
6.73882252e-01 2.00000000e-03 0.0
1.35061699e-01 6.27798959e-01 0.0
1.23600269e-01 3.42163733e-01 0.0
9.98000000e-01 2.00000000e-03 0.0
4.41531988e-01 7.91645636e-01 0.0
3.09199525e-01 2.00000000e-03 0.0
2.00000000e-03 6.23369660e-01 0.0
2.87785777e-01 2.00000000e-03 0.0
9.43041222e-01 2.00000000e-03 0.0
7.09703597e-01 6.40535178e-01 0.0
2.00000000e-03 2.00000000e-03 0.0
2.00000000e-03 2.00000000e-03 0.0
2.00000000e-03 2.00000000e-03 0.0
4.79544725e-01 2.00000000e-03 0.0
7.17189335e-01 9.16709890e-01 0.0
2.00000000e-03 6.30219756e-01 0.0
3.43451555e-01 2.00000000e-03 0.0
3.74667889e-01 2.24064422e-01 0.0
2.00000000e-03 9.36060225e-01 0.0
3.39929609e-01 2.00000000e-03 0.0
6.57479549e-01 5.98084074e-02 0.0
6.27811646e-01 2.00000000e-03 0.0
2.00000000e-03 2.00000000e-03 0.0
1.70664773e-01 2.00000000e-03 0.0
2.00000000e-03 2.00000000e-03 0.0
4.05383757e-01 2.00000000e-03 0.0
1.28038005e-01 2.00000000e-03 0.0
3.10930831e-01 9.98000000e-01 0.0
5.04009052e-01 2.00000000e-03 0.0
2.00000000e-03 3.00365132e-01 0.0
9.98000000e-01 2.00000000e-03 0.0
9.98000000e-01 2.00000000e-03 0.0
2.00000000e-03 2.00000000e-03 0.0
9.98000000e-01 7.66054927e-02 0.0
6.25405799e-01 2.40253955e-01 0.0
9.98000000e-01 2.00000000e-03 0.0
9.98000000e-01 4.96391689e-01 0.0
3.62909135e-02 1.21314559e-01 0.0
4.00214749e-01 2.00000000e-03 0.0
9.98000000e-01 2.85457755e-01 0.0
9.98000000e-01 2.00000000e-03 0.0
1.46109977e-01 2.00000000e-03 0.0
3.31234478e-01 7.53875934e-01 0.0
2.00000000e-03 6.57394436e-01 0.0
2.00000000e-03 2.41205232e-01 0.0
3.58466059e-01 2.00000000e-03 0.0
4.04874242e-01 2.00000000e-03 0.0
8.55948156e-01 2.00000000e-03 0.0
9.98000000e-01 2.00000000e-03 0.0
1.93530124e-01 2.00000000e-03 0.0
2.00000000e-03 9.98000000e-01 0.0
[...]
CELL_DATA 5515
SCALARS z float 1
LOOKUP_TABLE default
6.11602338e+00
4.96673410e+00
2.71769324e+00
6.85359770e+00
4.09094809e+00
5.78441730e+00
6.11602338e+00
2.95190817e+00
4.40598465e+00
4.96673410e+00
7.30077453e+00
6.50919316e+00
1.40851665e+01
9.26947390e+00
6.77445094e+00
4.83535708e+00
2.55987381e+01
3.07262413e+00
6.79526217e+00
5.46745790e+00
3.36873464e+00
3.62264183e+00
3.62264183e+00
3.73757006e+00
4.30864462e+00
4.30864462e+00
3.73757006e+00
7.81250191e+00
3.36873464e+00
2.36164696e+01
6.32568884e+00
6.85359770e+00
7.67903746e+00
7.54926649e+00
7.66096101e+00
4.39313048e+00
3.68310638e+00
5.56138017e+00
8.86135612e+00
1.01006608e+01
4.23526104e+00
4.23526104e+00
9.02944962e+00
1.31590307e+01
4.00898272e+00
4.40676867e+00
5.62921096e+00
4.46601599e+00
4.98392576e+00
5.16686276e+00
5.16686276e+00
3.91447852e+00
3.77541915e+00
2.76644929e+00
1.09484832e+01
7.02965410e+00
6.45810403e+00
7.81491951e+00
6.09025459e+00
3.02696634e+00
2.69623102e+00
4.65979207e+00
2.69623102e+00
7.31960600e+00
9.90401160e+00
3.07262413e+00
1.05242253e+01
8.53969207e+00
5.78441730e+00
9.59522768e+00
6.50919316e+00
2.58895669e+00
5.70906796e+00
5.70906796e+00
1.25470667e+01
2.58895669e+00
4.06552559e+00
4.31690826e+00
4.67314171e+00
4.65979207e+00
4.31690826e+00
5.31940164e+00
6.28083423e+00
6.98066106e+00
4.52137386e+00
6.22671061e+00
3.37989393e+00
3.37989393e+00
4.52137386e+00
4.83535708e+00
4.79188660e+00
5.20957317e+00
5.20957317e+00
1.15644181e+01
1.03418803e+01
6.31866831e+00
7.38110344e+00
5.79188255e+00
8.86135612e+00
1.07397897e+01
6.24013166e+00
6.72777056e+00
1.35013385e+01
6.69597394e+00
6.69597394e+00
1.22475928e+01
3.38919271e+00
3.30418099e+00
3.24425437e+00
4.96661733e+00
6.59315969e+00
3.45448468e+00
5.67144948e+00
3.45448468e+00
1.40166327e+01
5.67144948e+00
5.56138017e+00
9.90389563e+00
7.36487703e+00
5.18317599e+00
3.17145961e+00
3.17145961e+00
3.32222479e+00
3.32222479e+00
4.57508087e+00
1.04096844e+01
4.50092465e+00
4.67305056e+00
3.90229427e+00
3.70426684e+00
3.70426684e+00
4.39313048e+00
6.39139342e+00
8.21483546e+00
4.16188386e+00
4.65089393e+00
4.96074069e+00
7.87008825e+00
5.51928337e+00
4.63802610e+00
1.07397897e+01
7.69649586e+00
7.69649586e+00
6.01822738e+00
1.56336712e+01
3.86544664e+00
4.74253612e+00
4.50092465e+00
7.35994858e+00
7.35994858e+00
3.09220989e+00
9.49337314e+00
9.05813610e+00
3.99530369e+00
6.79064636e+00
6.79064636e+00
4.91085651e+00
8.62419892e+00
9.72314718e+00
4.91085651e+00
4.67317560e+00
7.65706426e+00
3.37665148e+00
4.99030839e+00
4.40676867e+00
4.22788470e+00
6.46589694e+00
5.80102328e+00
1.27241979e+01
1.84961085e+01
2.76644929e+00
6.26563830e+00
6.23878812e+00
9.04243636e+00
5.66411560e+00
1.00253181e+01
5.66411560e+00
8.36492232e+00
2.83342634e+00
2.83342634e+00
3.07124546e+00
4.53827473e+00
4.53827473e+00
2.94087345e+00
4.92209733e+00
5.12292577e+00
4.01087022e+00
4.67314171e+00
1.95667195e+01
2.80592039e+00
2.80592039e+00
6.15433729e+00
9.35307751e+00
9.78307761e+00
7.44794481e+00
2.28677572e+00
2.05427964e+00
2.05427964e+00
2.51814352e+00
3.36236423e+00
4.44157533e+00
4.44157533e+00
1.46230855e+01
1.75326869e+01
1.46230855e+01
4.91136190e+00
4.91136190e+00
4.86195065e+00
6.90634999e+00
5.82968372e+00
6.90634999e+00
6.61078040e+00
8.57510915e+00
4.44567922e+00
2.14558862e+01
8.10846925e+00
9.26044114e+00
6.01032622e+00
6.31866831e+00
4.71389866e+00
5.79188255e+00
1.25644128e+01
8.14515230e+00
9.05301606e+00
5.69001502e+00
5.69001502e+00
6.89461292e+00
5.40709492e+00
4.63802610e+00
5.00244854e+00
1.02971250e+01
5.60860863e+00
1.09570091e+01
4.22554617e+01
5.46783395e+00
5.06249265e+00
5.18766505e+00
3.24425437e+00
6.73573414e+00
9.05609998e+00
9.47039170e+00
4.00818889e+00
6.44309872e+00
4.67305056e+00
5.22931268e+00
4.76705818e+00
1.07717119e+01
3.37615311e+00
5.46113819e+00
1.43087494e+01
4.76705818e+00
5.82747974e+01
2.56285210e+00
2.94013922e+00
2.94013922e+00
1.33006215e+01
1.06243772e+01
3.09301221e+00
4.24253144e+00
5.97507455e+00
4.24253144e+00
5.94965276e+00
8.75032436e+00
4.16188386e+00
6.64734501e+00
6.64734501e+00
4.65040237e+00
2.88120698e+00
2.52430039e+00
1.06290666e+01
1.03757420e+01
1.47159224e+01
1.35851858e+01
4.15178924e+00
3.83265374e+00
3.83265374e+00
2.88120698e+00
3.86544664e+00
9.39654980e+00
4.32061562e+00
4.44169859e+00
3.94008971e+00
2.98731249e+00
2.98731249e+00
4.37066600e+00
3.09220989e+00
4.01696330e+00
4.01696330e+00
8.84437891e+00
1.82401736e+01
3.08905955e+01
4.11090063e+00
3.13582873e+00
3.13582873e+00
3.02696634e+00
3.37665148e+00
4.33482274e+00
3.86960323e+00
4.99030839e+00
5.58832050e+00
2.39964592e+00
2.73070127e+00
2.65716821e+00
2.65716821e+00
1.59399898e+01
1.39876927e+01
5.61524277e+00
5.61524277e+00
4.15370458e+00
3.99639161e+00
3.99530369e+00
1.01988589e+01
5.64779342e+00
2.61252984e+00
7.04210140e+00
6.68201268e+00
1.09146278e+01
1.44655500e+01
4.00898272e+00
6.15532641e+00
6.15532641e+00
5.44646734e+00
1.62274895e+01
5.34526759e+00
1.00406675e+01
7.46547475e+00
5.62454605e+00
5.62454605e+00
2.14709905e+01
9.17880015e+00
9.17880015e+00
3.77541915e+00
1.18267465e+01
1.64819392e+01
5.53745649e+00
5.53745649e+00
6.78713134e+00
2.14271904e+01
9.89129346e+00
6.61078040e+00
7.76789136e+00
4.65605814e+00
4.27737785e+00
3.25481525e+00
9.77347605e+00
8.28635811e+00
8.79239253e+00
6.09113298e+00
5.04865296e+00
6.15433729e+00
8.38210087e+00
2.70578654e+00
5.59123252e+00
6.95563134e+00
6.31265156e+00
5.86357752e+00
4.07234313e+00
3.31341018e+00
2.41161198e+00
6.31618498e+00
3.75449578e+00
2.85886767e+00
4.03554782e+00
5.88583233e+00
6.54060473e+00
5.27324420e+00
4.51592199e+00
2.30106831e+00
4.04548351e+00
3.31489535e+00
3.31489535e+00
6.01032622e+00
1.52436527e+01
7.84837083e+00
8.79125885e+00
1.77804651e+01
1.20387602e+01
8.59474675e+00
7.56113235e+00
6.96144144e+01
1.03263815e+01
3.71310412e+00
1.07004133e+01
8.93269218e+00
7.62180499e+00
7.62180499e+00
4.67132452e+00
4.67132452e+00
7.32122706e+00
5.17499939e+00
4.86195065e+00
7.28688942e+00
7.28688942e+00
2.49425397e+00
2.18477936e+00
2.18477936e+00
1.43861434e+01
8.10846925e+00
5.35427289e+00
3.91898099e+00
3.91898099e+00
4.86248787e+00
6.13739999e+00
9.84310556e+00
6.37501994e+00
5.46783395e+00
2.75696673e+00
3.63064882e+00
3.80320264e+00
7.04840794e+00
3.10722919e+00
5.20532718e+00
4.88093100e+00
5.20090651e+00
9.41780786e+00
7.60814002e+00
2.62011622e+00
5.06249265e+00
1.18161070e+01
3.80243165e+00
2.62011622e+00
4.00818889e+00
5.87581464e+00
2.36164696e+01
9.05609998e+00
4.27757689e+01
3.72326207e+00
3.72326207e+00
4.20247688e+00
4.20247688e+00
3.28555651e+00
3.28555651e+00
4.77994951e+00
4.34246708e+00
4.34246708e+00
6.01672078e+00
6.01672078e+00
1.84957096e+01
1.73630560e+01
8.51979713e+00
8.73632399e+00
3.02179283e+00
2.70181561e+00
2.61145797e+00
2.07115075e+01
3.28976188e+01
4.54875671e+00
2.43525314e+00
6.09630863e+00
2.56285210e+00
2.76401314e+00
2.99721540e+00
2.99721540e+00
2.37769955e+00
4.51299709e+00
4.51299709e+00
4.01195451e+00
3.91008713e+00
3.91008713e+00
5.42142901e+00
5.42142901e+00
4.65089393e+00
3.13103130e+00
3.36461850e+00
4.72716000e+00
4.47427324e+00
4.47427324e+00
2.52430039e+00
5.62848667e+00
5.75503587e+00
6.24013166e+00
5.84071538e+00
4.23471322e+00
6.66145824e+00
4.48214891e+00
1.04035215e+01
1.56620621e+01
1.62787639e+01
4.15178924e+00
1.47159224e+01
6.82620434e+00
3.27728463e+00
1.52277048e+01
1.12702430e+01
1.38090991e+01
6.21506170e+00
2.68309097e+00
2.68309097e+00
4.32061562e+00
5.27366219e+00
4.27964148e+00
6.14081958e+00
7.69017922e+00
6.45089633e+00
5.52312159e+00
3.42350244e+00
3.14946387e+00
3.14946387e+00
3.42350244e+00
5.05201704e+00
3.27792103e+00
3.27792103e+00
3.31936407e+00
1.07216278e+01
1.07216278e+01
3.52661256e+00
2.39964592e+00
3.65472161e+00
3.65472161e+00
3.87930531e+01
5.64779342e+00
3.69270249e+00
3.69270249e+00
1.46682927e+01
2.05983662e+00
1.25420408e+01
7.98610205e+00
8.06685131e+00
2.70578654e+00
7.86277056e+00
1.35938267e+01
5.44646734e+00
5.46223277e+00
4.12627439e+00
3.49376110e+00
3.94201227e+00
3.94201227e+00
5.09049396e+00
3.51851044e+00
1.97299353e+01
2.12595652e+01
5.11174324e+00
1.23265715e+01
7.35664637e+00
6.23878812e+00
4.79188660e+00
3.25481525e+00
1.07581950e+01
7.87466623e+00
5.42630027e+00
8.57510915e+00
2.94087345e+00
7.75862707e+00
4.11629856e+00
4.08481917e+00
4.42670808e+00
4.08481917e+00
4.94975109e+00
1.23312258e+01
5.40677307e+00
5.40677307e+00
3.86354716e+00
3.86354716e+00
2.85886767e+00
4.13616424e+00
5.89581376e+00
4.37115174e+00
3.08341873e+00
1.25139379e+01
3.73696594e+00
1.49588619e+01
1.08507133e+01
4.22085116e+00
8.85378675e+00
5.23063720e+00
7.29186798e+00
7.29186798e+00
6.42054709e+00
6.42054709e+00
6.30263948e+00
5.36566841e+00
1.46362759e+01
6.30263948e+00
3.73696594e+00
5.20266795e+00
4.02649466e+00
3.45911682e+00
5.45394263e+00
7.63967787e+00
5.99294568e+00
6.17451721e+00
7.16229576e+00
4.49180381e+00
3.07498339e+00
9.80989281e+00
7.62195996e+00
3.51851044e+00
1.48214555e+01
7.27647256e+00
6.90355710e+00
5.62344866e+00
4.81975423e+00
4.81975423e+00
7.37770492e+00
5.56162366e+00
2.83182727e+00
2.83182727e+00
3.70150732e+00
3.70150732e+00
4.88440061e+00
3.02004274e+00
8.31601579e+00
4.03554782e+00
3.75449578e+00
3.02004274e+00
5.44279000e+00
3.31341018e+00
5.88583233e+00
2.59056460e+00
2.59056460e+00
5.70855980e+00
2.26576906e+00
2.26576906e+00
3.43280890e+00
2.38904398e+00
2.28677572e+00
4.39868018e+00
4.39868018e+00
1.38816518e+01
4.53890284e+00
1.40407131e+01
6.24074371e+00
4.07985750e+00
6.20646486e+00
3.90617065e+00
8.50753891e+00
1.10813278e+01
4.14584324e+00
3.94906305e+00
2.75851113e+00
3.94906305e+00
2.71769324e+00
2.56868700e+00
5.17580200e+00
2.15326468e+01
2.79656538e+01
8.70538633e+00
1.29109803e+01
2.05329060e+01
7.48746788e+00
8.87917635e+00
1.00020084e+01
3.18005156e+01
3.48053224e+00
3.27105079e+00
3.27105079e+00
6.45526084e+00
1.53800392e+01
8.44237362e+00
3.21678966e+00
5.31940164e+00
3.08820812e+01
7.78216018e+00
9.35868062e+00
9.35868062e+00
7.73046811e+00
1.10950752e+01
4.69976896e+00
5.46890186e+00
3.71310412e+00
4.18405778e+00
4.18405778e+00
4.97881139e+00
6.50711101e+00
7.84986138e+00
8.04894860e+00
5.53371177e+00
5.53371177e+00
1.80988206e+01
4.48425340e+00
7.71562603e+00
6.44154165e+00
3.70371060e+00
1.47398938e+01
6.41608979e+00
6.41608979e+00
4.00475941e+00
4.00475941e+00
5.87245621e+00
4.41359952e+00
4.41359952e+00
8.75030932e+00
8.62584027e+00
1.04378094e+01
5.77235341e+00
1.10065591e+01
6.26433807e+00
1.96328282e+01
6.26433807e+00
1.05580532e+01
7.82254617e+00
7.82254617e+00
4.86248787e+00
3.04852184e+01
1.09639232e+01
4.71389866e+00
2.18560836e+01
5.09859326e+01
4.93708052e+00
3.36178477e+00
3.36178477e+00
3.06804023e+00
4.47035209e+00
7.83482797e+00
4.09807329e+00
4.09807329e+00
2.73763650e+00
2.73763650e+00
2.67594050e+00
3.10722919e+00
3.25234282e+00
3.25234282e+00
8.67925029e+00
6.86570867e+00
5.88200375e+00
5.88200375e+00
1.18004541e+01
6.27261586e+00
4.81761302e+00
3.63064882e+00
5.55164342e+00
4.55296203e+00
4.55296203e+00
4.73042326e+00
5.60860863e+00
3.08200338e+00
3.09443778e+00
2.65663555e+00
4.19705505e+00
5.33632398e+00
6.78229279e+00
5.22770162e+00
7.15845371e+00
3.36461850e+00
1.29176539e+01
5.22770162e+00
3.80969637e+00
1.01959375e+01
4.81292266e+00
3.80969637e+00
3.30418099e+00
3.38919271e+00
7.92409772e+00
7.81332697e+00
6.83312479e+00
6.98375098e+00
2.67115551e+00
2.61145797e+00
3.60222582e+00
3.69324268e+00
3.69324268e+00
3.76758523e+00
1.13431761e+01
1.96904202e+01
3.52346110e+00
3.52346110e+00
3.09301221e+00
2.43525314e+00
6.65893633e+00
7.09047326e+00
2.59590995e+01
5.68001569e+00
4.63673376e+00
4.63673376e+00
7.38382153e+00
1.60099874e+01
1.26830261e+01
5.75447668e+00
5.75447668e+00
5.42445116e+00
7.86580723e+00
2.85089716e+01
4.65040237e+00
4.58521174e+00
4.60568297e+00
6.39167012e+00
3.43251885e+00
3.43251885e+00
6.05973639e+00
6.42609160e+00
7.52282088e+00
5.26956122e+00
6.21916560e+00
5.04356049e+00
4.23471322e+00
5.83669932e+00
6.59353572e+00
6.59353572e+00
5.51282030e+00
6.82620434e+00
1.09424375e+01
5.86079852e+00
5.86079852e+00
7.07628837e+00
5.51282030e+00
5.88620485e+00
5.88620485e+00
8.16940149e+00
4.28336790e+00
1.30484549e+01
6.02289465e+00
6.02289465e+00
4.92057038e+00
1.04028809e+01
2.84001848e+00
2.84001848e+00
6.48172110e+00
5.64779118e+00
5.64779118e+00
5.25856849e+00
6.96182574e+00
6.96182574e+00
3.45911682e+00
4.27964148e+00
6.86179950e+00
3.84933171e+00
3.75793360e+00
3.75793360e+00
6.56332755e+00
4.83155060e+00
4.83155060e+00
5.29487275e+00
2.72075215e+00
3.93397562e+00
2.61252984e+00
1.31807882e+01
1.05695847e+01
1.85957176e+01
1.71611302e+01
1.26693590e+01
5.73392278e+00
5.11182558e+00
5.11182558e+00
4.03329416e+00
4.03329416e+00
3.80774231e+00
7.44794481e+00
5.92922505e+00
2.75813384e+00
2.75813384e+00
7.42202434e+00
5.97188322e+00
9.90106305e+00
7.42202434e+00
7.46823576e+00
4.15842077e+00
7.41940304e+00
7.76789136e+00
5.31176297e+00
4.15842077e+00
1.32525547e+01
3.92096288e+00
3.92096288e+00
4.65605814e+00
1.95976409e+01
3.92119673e+00
3.08209660e+00
3.08209660e+00
5.57158571e+00
4.28341509e+00
5.57158571e+00
6.80462903e+00
4.28341509e+00
4.22085116e+00
5.04865296e+00
9.44594088e+00
3.81633822e+00
2.46596307e+00
2.46596307e+00
5.04377839e+00
5.33795575e+00
2.39057060e+00
4.75757897e+00
2.39057060e+00
1.81958735e+01
4.75757897e+00
3.23900906e+00
3.23900906e+00
3.52361184e+00
3.07498339e+00
3.55239164e+00
2.74957010e+00
2.74957010e+00
5.86357752e+00
6.17605083e+00
7.87868727e+00
7.87868727e+00
6.17605083e+00
3.60875678e+00
2.84003543e+00
2.41161198e+00
4.19126327e+00
5.41211756e+00
3.73196395e+00
5.41211756e+00
4.24325308e+00
5.27324420e+00
7.29673852e+00
8.29299762e+00
1.09153969e+01
6.61580488e+00
6.09807652e+00
3.55281462e+00
2.59834756e+00
2.56868700e+00
2.38830516e+00
4.99885938e+01
1.08582908e+01
6.32827516e+01
9.49143155e+01
1.84523954e+01
2.16071047e+01
2.10766029e+01
3.23493189e+01
6.62691281e+00
7.78609606e+00
7.36933865e+00
3.66381028e+00
7.95803293e+00
7.89874979e+00
4.69976896e+00
9.63934982e+00
5.83007711e+00
6.97022402e+00
8.04894860e+00
9.94250189e+00
3.69083893e+00
3.69083893e+00
7.37207875e+00
7.37207875e+00
1.33672329e+01
1.26582687e+01
5.01171842e+00
5.06485827e+00
4.44567922e+00
1.53287480e+01
5.35427289e+00
7.59842973e+00
4.77581761e+00
4.77581761e+00
4.90045369e+00
2.23434152e+01
6.47446846e+00
3.64874773e+01
1.08071971e+01
6.00031323e+00
5.86023235e+00
1.29682437e+01
1.32559136e+01
3.18081031e+01
1.94236329e+01
6.39667750e+00
5.98373031e+00
4.86258259e+00
5.15320109e+00
4.72743686e+00
4.93708052e+00
6.77498304e+00
3.56649835e+00
9.32289090e+01
3.53179779e+01
4.19557930e+00
4.19557930e+00
4.15886730e+00
4.15886730e+00
5.42172734e+00
8.62850797e+00
3.09760337e+00
3.36886845e+00
3.75278814e+00
4.01600673e+00
4.39535799e+00
4.20814469e+00
4.20814469e+00
6.42609160e+00
5.10663205e+00
4.16967975e+00
4.03865563e+00
8.06501101e+00
7.82864470e+00
4.95220028e+00
5.45675754e+00
2.78970181e+00
5.91816282e+00
5.06058769e+00
6.27261586e+00
1.06768430e+01
4.31895649e+00
6.04521110e+00
4.31895649e+00
4.91112699e+00
3.64904552e+00
5.59018338e+00
6.93663176e+00
1.37292693e+01
4.28950725e+00
6.15218543e+00
4.99906986e+00
4.99906986e+00
3.58635757e+00
3.34999830e+00
7.69064261e+00
4.50269742e+00
4.54930174e+00
7.90683780e+00
1.00656330e+01
8.00090201e+00
4.72530179e+00
2.65037930e+00
2.79880390e+00
6.95404684e+00
6.29449598e+00
4.03199939e+00
6.64000798e+00
8.81808489e+00
1.54333131e+01
5.29244723e+01
1.51581509e+01
2.34124525e+01
2.55214193e+00
2.60293307e+00
2.55214193e+00
6.58113384e+00
4.22622646e+00
6.27040129e+00
5.68220830e+00
5.57284752e+00
1.10305749e+01
9.56480711e+00
1.07317180e+01
6.78187184e+00
3.32250068e+01
5.18050304e+01
2.33848043e+01
3.87836847e+00
3.80610854e+00
6.66568454e+00
2.25548843e+00
2.25548843e+00
4.59037562e+00
2.38829390e+00
2.38829390e+00
1.39370817e+01
1.71325507e+01
5.32745742e+00
1.71325507e+01
7.16709254e+00
2.45727004e+00
2.45727004e+00
3.18645408e+00
2.53655657e+00
2.53655657e+00
1.10819167e+01
6.10643841e+00
6.10643841e+00
7.22204982e+00
1.09822966e+01
1.09822966e+01
5.73984762e+00
3.06902219e+00
2.55937976e+00
3.06902219e+00
5.79661326e+00
5.22952013e+00
4.73415069e+00
7.21275027e+00
4.97885046e+00
2.93037777e+00
2.93037777e+00
1.13829269e+01
3.64393066e+00
1.05414198e+01
2.56718097e+00
9.84603132e+00
1.17659757e+01
9.73374951e+00
4.44694988e+00
5.08314419e+00
4.44694988e+00
1.35938267e+01
1.59495892e+01
7.19796773e+00
7.86321768e+00
1.25113558e+01
8.79933096e+00
3.49376110e+00
5.36582757e+00
6.42620926e+00
5.92922505e+00
3.33174641e+00
4.47459967e+00
4.77356209e+00
4.77356209e+00
3.57783645e+00
3.57783645e+00
2.75239291e+01
5.33795575e+00
5.71627256e+00
3.52361184e+00
6.88664514e+00
8.53961772e+00
2.84003543e+00
4.19126327e+00
5.05040422e+00
1.44293794e+01
5.44279000e+00
3.13139141e+00
3.16098544e+00
3.13139141e+00
3.86847331e+01
2.46490232e+00
1.51859462e+01
2.38830516e+00
7.19151432e+01
3.36236423e+00
1.08533438e+01
1.74827811e+01
1.79786602e+01
1.40021474e+02
4.83980056e+01
6.45526084e+00
6.62284939e+00
7.29471194e+00
7.68853812e+00
4.05330954e+00
7.93618383e+00
4.47668096e+00
6.25202363e+00
6.25202363e+00
6.04394404e+00
5.99083485e+00
5.11442995e+00
7.78216018e+00
7.83458857e+00
9.63934982e+00
1.22100746e+01
1.22100746e+01
5.65323579e+00
4.90045369e+00
9.09832873e+00
1.42148184e+01
4.23602376e+00
4.23602376e+00
7.10861223e+00
6.47446846e+00
1.41904633e+02
1.26506046e+02
1.02703254e+01
1.02931026e+01
4.77096575e+00
1.58184173e+01
1.47387280e+01
1.18735618e+01
4.88746064e+01
5.83370809e+01
2.62670535e+01
4.31584581e+00
4.46708245e+00
8.38053378e+00
2.65663555e+00
4.81181037e+00
4.50269742e+00
4.01696085e+00
3.09760337e+00
1.13824039e+01
8.73222264e+00
6.50935995e+00
6.18744308e+00
7.32878640e+00
6.55158155e+00
6.96496775e+00
3.96626095e+01
2.88209829e+01
1.89039751e+01
2.10409216e+01
2.79777401e+01
2.22753734e+01
1.60735943e+01
1.41779518e+01
1.58241473e+01
1.32784682e+01
1.01844877e+01
6.12581209e+00
7.46831660e+00
4.34045752e+00
4.34045752e+00
4.36426013e+00
4.36426013e+00
5.10499446e+00
6.88152973e+00
6.74342446e+00
2.54915705e+01
4.03865563e+00
6.77904940e+00
6.77904940e+00
4.56654458e+00
4.53195286e+00
2.67594050e+00
4.26302892e+00
6.78323121e+00
6.85739461e+00
5.62318736e+00
5.62318736e+00
2.50977708e+00
4.46819246e+01
8.10595869e+00
8.47785302e+00
1.37697295e+01
4.90552497e+00
8.99745472e+00
1.34219463e+01
6.05486381e+00
6.15897538e+00
4.03149561e+00
3.92705889e+00
3.60326085e+00
2.84038905e+00
1.00913792e+01
1.30714528e+01
4.14314403e+01
8.01894923e+00
6.49221317e+00
5.03407718e+00
4.50653439e+00
4.31200408e+00
7.20369162e+00
5.15917807e+00
5.53031029e+00
6.34905289e+00
5.72231246e+00
4.27382157e+00
4.49812878e+00
4.06917102e+00
2.65037930e+00
5.48793328e+00
5.44946593e+00
5.78186931e+00
1.53989928e+01
1.28266070e+01
1.33977167e+01
1.38870311e+01
6.52646311e+01
3.40000000e+02
6.74479081e+00
6.35754613e+00
2.01822745e+01
4.01041413e+00
4.96230413e+00
4.98064470e+00
1.25595449e+01
1.21213717e+01
7.19069394e+00
6.78187184e+00
2.28239037e+01
2.73766124e+01
1.43402585e+02
9.25396438e+00
1.03272574e+01
7.84544317e+01
7.43578829e+00
3.83953850e+00
3.88969949e+00
4.38742002e+00
1.10840827e+01
9.30277356e+00
7.84348304e+00
5.32745742e+00
2.55937976e+00
5.47163070e+00
1.11451932e+01
4.40598465e+00
1.44774977e+01
8.50537257e+00
1.26963152e+01
1.26963152e+01
8.50537257e+00
5.79661326e+00
2.53896003e+00
2.05983662e+00
5.57842649e+00
5.91746936e+00
3.80774231e+00
3.10125663e+00
3.33174641e+00
1.10232074e+01
6.36781978e+00
5.37426236e+00
5.44220950e+00
5.63703689e+00
7.22897602e+00
4.17728453e+00
4.45105487e+00
1.11290621e+01
4.94798291e+00
2.32450711e+01
4.24178746e+00
4.99437252e+00
4.24178746e+00
1.29620834e+01
1.24590950e+01
1.32169299e+01
5.59153372e+01
7.14509766e+01
5.52803625e+00
5.01960922e+00
3.63518448e+01
2.28330870e+01
3.91635821e+00
4.10745585e+00
2.01949685e+01
1.38096824e+01
8.29359049e+00
8.89362204e+00
3.83777352e+00
3.83777352e+00
4.62946006e+00
4.70882544e+00
3.21678966e+00
3.34780809e+00
3.59110710e+00
3.44948271e+00
4.48425340e+00
4.78988070e+00
4.72743686e+00
4.74254324e+00
2.08938908e+01
1.65403659e+01
1.41916601e+01
1.42189586e+01