# vtk DataFile Version 2.0
z-phase-transition mesh
ASCII
DATASET UNSTRUCTURED_GRID

POINTS 8640 float
4.40268685e-01 4.95003543e-02 0.0
8.06805460e-01 1.79645983e-01 0.0
6.56410820e-01 1.00360130e-01 0.0
2.00000000e-03 2.00000000e-03 0.0
2.00000000e-03 4.32255191e-01 0.0
7.87257053e-01 2.00000000e-03 0.0
4.73646122e-01 7.24748851e-01 0.0
2.00000000e-03 5.49704482e-01 0.0
2.95280589e-01 2.41752268e-01 0.0
3.48133535e-03 4.93510852e-02 0.0
1.70270816e-02 2.00000000e-03 0.0
9.18354673e-01 2.00000000e-03 0.0
2.00000000e-03 2.00000000e-03 0.0
2.00000000e-03 2.00000000e-03 0.0
5.45931587e-01 7.01439172e-02 0.0
1.00851061e-01 2.49466054e-01 0.0
4.37703859e-01 2.00000000e-03 0.0
8.40955322e-02 2.00000000e-03 0.0
4.07853857e-01 2.00000000e-03 0.0
1.24836794e-01 2.00000000e-03 0.0
5.07332830e-01 2.50040023e-01 0.0
2.00000000e-03 9.81428886e-02 0.0
2.00000000e-03 2.00000000e-03 0.0
2.00000000e-03 2.63709665e-01 0.0
2.00000000e-03 2.00000000e-03 0.0
9.98000000e-01 2.00000000e-03 0.0
4.43327903e-01 2.00000000e-03 0.0
4.25911697e-01 2.00000000e-03 0.0
4.18737870e-01 2.00000000e-03 0.0
1.27902696e-01 5.52244047e-01 0.0
2.00000000e-03 2.00000000e-03 0.0
2.00000000e-03 6.25921649e-01 0.0
2.98424450e-01 1.18967508e-01 0.0
2.00000000e-03 7.11941984e-01 0.0
3.59312377e-01 2.00000000e-03 0.0
2.00000000e-03 3.44112159e-01 0.0
9.98000000e-01 2.00000000e-03 0.0
3.99246586e-02 2.00000000e-03 0.0
2.13016644e-01 2.36512453e-02 0.0
5.41843153e-01 2.00000000e-03 0.0
8.18162788e-02 2.00000000e-03 0.0
2.00000000e-03 2.00000000e-03 0.0
1.71446690e-01 2.00000000e-03 0.0
2.74798199e-01 7.49020689e-01 0.0
5.59239349e-01 1.65598011e-01 0.0
2.61099922e-01 3.36117994e-01 0.0
2.00000000e-03 1.05769371e-01 0.0
2.07095201e-01 2.00000000e-03 0.0
6.47148956e-01 2.00000000e-03 0.0
3.35356189e-01 8.15620012e-02 0.0
1.78902681e-01 2.00000000e-03 0.0
3.45752054e-01 7.33248887e-02 0.0
5.04922590e-01 2.00000000e-03 0.0
7.39636981e-01 2.00000000e-03 0.0
5.77806163e-01 2.30473260e-01 0.0
2.66702858e-01 1.95467164e-01 0.0
9.98000000e-01 3.72821291e-01 0.0
9.98000000e-01 2.00000000e-03 0.0
9.98000000e-01 2.00000000e-03 0.0
8.77171871e-01 2.00000000e-03 0.0
4.50310825e-01 2.00000000e-03 0.0
9.98000000e-01 2.00000000e-03 0.0
2.00000000e-03 2.00000000e-03 0.0
6.01519948e-01 1.35862678e-01 0.0
3.96605381e-02 2.28017084e-01 0.0
3.99299258e-01 2.00000000e-03 0.0
3.27991481e-01 5.34794713e-02 0.0
8.11326556e-01 2.00000000e-03 0.0
5.59938413e-01 2.00000000e-03 0.0
4.48152936e-01 2.00000000e-03 0.0
2.00000000e-03 3.71712953e-01 0.0
2.50864937e-01 4.03296804e-01 0.0
3.17511994e-01 2.69047583e-01 0.0
6.20000095e-01 1.15003166e-01 0.0
5.03826058e-01 3.03165275e-02 0.0
9.14288132e-01 3.62997856e-01 0.0
8.44898083e-01 2.00000000e-03 0.0
1.83678212e-01 2.23653607e-01 0.0
3.28772518e-01 2.06539205e-01 0.0
4.73290978e-01 2.00000000e-03 0.0
5.85253270e-01 1.42265729e-01 0.0
9.98000000e-01 2.00000000e-03 0.0
5.21786439e-01 2.00000000e-03 0.0
1.48728967e-01 2.00000000e-03 0.0
3.01986794e-01 5.46814208e-01 0.0
9.98000000e-01 2.00000000e-03 0.0
9.98000000e-01 2.00000000e-03 0.0
9.98000000e-01 2.00000000e-03 0.0
9.98000000e-01 2.00000000e-03 0.0
5.68304273e-01 2.00000000e-03 0.0
1.25010559e-01 2.00000000e-03 0.0
2.22050985e-01 5.51616602e-01 0.0
9.92634453e-01 2.87442504e-01 0.0
9.98000000e-01 2.00000000e-03 0.0
9.23512223e-01 4.66471766e-01 0.0
3.73448403e-02 2.95866327e-02 0.0
8.88805828e-01 2.00000000e-03 0.0
9.98000000e-01 2.00000000e-03 0.0
3.87208620e-01 2.00000000e-03 0.0
9.98000000e-01 4.91957782e-01 0.0
9.98000000e-01 6.88423568e-01 0.0
9.71314224e-01 2.00000000e-03 0.0
9.00545348e-01 2.00000000e-03 0.0
2.36448404e-01 2.00000000e-03 0.0
9.98000000e-01 2.00000000e-03 0.0
9.98000000e-01 4.90134359e-02 0.0
9.98000000e-01 2.13049886e-01 0.0
9.98000000e-01 1.27098877e-02 0.0
9.98000000e-01 7.52890572e-02 0.0
1.19544514e-02 2.00000000e-03 0.0
6.94216546e-01 3.63236380e-02 0.0
8.42965725e-01 3.33549776e-01 0.0
9.98000000e-01 2.00000000e-03 0.0
7.69053596e-01 1.99379974e-01 0.0
9.98000000e-01 2.00000000e-03 0.0
7.89526528e-01 4.62748223e-01 0.0
9.98000000e-01 3.00205286e-01 0.0
9.33144690e-01 2.00000000e-03 0.0
9.90493893e-01 5.56483860e-01 0.0
9.98000000e-01 2.00000000e-03 0.0
2.00000000e-03 3.32761174e-01 0.0
2.00000000e-03 2.07237248e-01 0.0
2.00000000e-03 3.61099994e-01 0.0
2.00000000e-03 1.60988664e-01 0.0
2.00000000e-03 1.55826100e-01 0.0
3.65212157e-02 7.47046062e-01 0.0
1.49228302e-01 2.78959945e-01 0.0
7.78215594e-01 2.77559849e-01 0.0
6.07081212e-01 6.65124716e-02 0.0
6.22152820e-02 2.68545842e-01 0.0
6.77766117e-02 2.00000000e-03 0.0
2.00000000e-03 2.00000000e-03 0.0
3.38108408e-01 2.92535633e-02 0.0
4.04252635e-01 2.00000000e-03 0.0
8.00332441e-01 3.01404776e-01 0.0
2.00000000e-03 4.76439017e-01 0.0
2.00000000e-03 2.00000000e-03 0.0
2.00000000e-03 6.63880204e-01 0.0
8.56103606e-01 2.00000000e-03 0.0
5.66135332e-01 1.12668644e-01 0.0
3.46154868e-01 1.07396253e-01 0.0
2.00000000e-03 2.00000000e-03 0.0
2.97815042e-01 8.29940099e-01 0.0
2.00000000e-03 2.40990252e-02 0.0
4.23832033e-01 2.00000000e-03 0.0
1.94908186e-01 2.00000000e-03 0.0
6.46059613e-01 1.27054225e-01 0.0
3.14663001e-01 4.88004247e-01 0.0
5.61126087e-01 2.09781201e-01 0.0
3.99284452e-01 1.83032934e-02 0.0
2.00000000e-03 1.92778866e-01 0.0
3.86326079e-01 3.06913727e-01 0.0
2.00000000e-03 2.00000000e-03 0.0
7.66301026e-01 2.00000000e-03 0.0
2.00000000e-03 2.00000000e-03 0.0
2.00000000e-03 3.29836651e-01 0.0
3.30563251e-01 2.00000000e-03 0.0
1.35196223e-01 2.00000000e-03 0.0
3.32234169e-01 2.00000000e-03 0.0
6.34481955e-01 2.56590447e-01 0.0
2.00000000e-03 2.00000000e-03 0.0
2.00000000e-03 2.38299247e-01 0.0
5.27325244e-01 1.79269387e-01 0.0
3.35646756e-01 2.00000000e-03 0.0
2.00000000e-03 1.47085883e-01 0.0
8.83341056e-01 2.00000000e-03 0.0
9.98000000e-01 5.87574898e-02 0.0
8.89496532e-01 2.45509032e-01 0.0
9.61771019e-01 2.00000000e-03 0.0
9.98000000e-01 2.00000000e-03 0.0
9.21007810e-01 2.00000000e-03 0.0
1.92500738e-01 4.67042553e-02 0.0
8.93378797e-02 4.04569009e-01 0.0
9.76445044e-01 5.97625735e-02 0.0
7.84732469e-01 2.62763150e-01 0.0
4.08723172e-01 2.00000000e-03 0.0
7.02670266e-01 3.35607290e-01 0.0
7.14565703e-01 4.93001450e-01 0.0
5.13458482e-01 2.00000000e-03 0.0
2.59295993e-01 2.00000000e-03 0.0
2.00000000e-03 6.71756988e-01 0.0
6.35149271e-01 2.00000000e-03 0.0
4.59946189e-01 2.53088450e-01 0.0
9.98000000e-01 1.14235004e-01 0.0
9.98000000e-01 2.48424241e-01 0.0
6.18038195e-01 2.00000000e-03 0.0
7.85719210e-01 2.00000000e-03 0.0
9.15019431e-01 4.13894289e-01 0.0
2.90886491e-01 2.00000000e-03 0.0
7.81911990e-01 2.00000000e-03 0.0
9.98000000e-01 2.00000000e-03 0.0
6.75608567e-01 2.00000000e-03 0.0
9.98000000e-01 2.00000000e-03 0.0
9.17871147e-01 2.00000000e-03 0.0
5.53943442e-01 1.23936052e-01 0.0
6.33041019e-01 2.07536194e-01 0.0
2.49840896e-01 6.06255624e-01 0.0
2.51122282e-01 1.51324002e-01 0.0
9.04496188e-01 2.00000000e-03 0.0
8.46897779e-01 3.10005195e-01 0.0
3.36203025e-01 2.00000000e-03 0.0
5.21264393e-01 2.86927309e-01 0.0
7.10979484e-01 2.00000000e-03 0.0
9.98000000e-01 4.56810181e-03 0.0
6.38761997e-01 2.00000000e-03 0.0
6.94071069e-01 3.05257445e-02 0.0
8.14002528e-01 3.64547649e-01 0.0
2.00000000e-03 2.00000000e-03 0.0
5.94442380e-01 2.00000000e-03 0.0
8.74113510e-01 2.00000000e-03 0.0
5.03107074e-01 2.00000000e-03 0.0
9.59174884e-01 2.00000000e-03 0.0
9.98000000e-01 2.00000000e-03 0.0
1.02272212e-01 2.00000000e-03 0.0
6.79961731e-01 2.00000000e-03 0.0
9.98000000e-01 2.00000000e-03 0.0
3.74675636e-01 2.31208949e-01 0.0
2.56044221e-01 2.00000000e-03 0.0
5.01617564e-01 5.47879713e-02 0.0
9.98000000e-01 2.00000000e-03 0.0
9.59116679e-01 2.00000000e-03 0.0
2.84610461e-01 2.00000000e-03 0.0
9.98000000e-01 2.00000000e-03 0.0
9.98000000e-01 2.00000000e-03 0.0
4.48699587e-01 2.00000000e-03 0.0
7.17215935e-01 3.81842000e-01 0.0
8.83575172e-01 2.41076244e-01 0.0
2.79991557e-02 2.00000000e-03 0.0
5.74529002e-01 1.20662915e-01 0.0
5.72930408e-01 2.02034968e-01 0.0
5.95807271e-01 2.00000000e-03 0.0
8.60530064e-01 8.69098198e-02 0.0
9.98000000e-01 2.00000000e-03 0.0
9.98000000e-01 7.04987145e-01 0.0
5.38556499e-01 2.31580536e-02 0.0
9.74006222e-01 2.00000000e-03 0.0
9.10427101e-01 4.65603563e-01 0.0
9.98000000e-01 2.00000000e-03 0.0
9.98000000e-01 3.28399458e-01 0.0
9.98000000e-01 1.30170637e-01 0.0
5.83741866e-01 2.00000000e-03 0.0
7.65427398e-01 2.00000000e-03 0.0
5.70508731e-02 2.00000000e-03 0.0
2.70462808e-01 2.00000000e-03 0.0
2.00000000e-03 2.06901142e-01 0.0
6.87607105e-02 6.97641659e-01 0.0
9.98000000e-01 6.54837181e-02 0.0
4.06379088e-02 2.00000000e-03 0.0
2.00000000e-03 2.00000000e-03 0.0
2.00000000e-03 2.00000000e-03 0.0
5.28813109e-01 3.35980424e-02 0.0
9.07019135e-01 2.07780693e-01 0.0
2.00000000e-03 5.46981778e-01 0.0
2.00000000e-03 2.00000000e-03 0.0
1.37192236e-01 1.14698181e-01 0.0
2.00000000e-03 7.93435704e-03 0.0
8.50234478e-02 2.00000000e-03 0.0
2.00000000e-03 1.64814715e-01 0.0
2.00000000e-03 2.00000000e-03 0.0
7.70563057e-01 2.00000000e-03 0.0
5.55802477e-01 2.33749178e-01 0.0
7.48488396e-01 9.01625398e-02 0.0
2.53442052e-01 2.00000000e-03 0.0
2.00000000e-03 2.85310889e-01 0.0
6.32267432e-01 2.00000000e-03 0.0
2.00000000e-03 5.10922892e-01 0.0
2.84045821e-01 2.00000000e-03 0.0
7.15392792e-01 7.80471596e-02 0.0
4.36714527e-01 2.00000000e-03 0.0
1.70799741e-01 1.02181223e-01 0.0
4.68382189e-01 2.00000000e-03 0.0
2.00000000e-03 2.00000000e-03 0.0
1.85890973e-01 7.74772496e-01 0.0
2.00000000e-03 2.00000000e-03 0.0
8.41848110e-01 4.60599415e-01 0.0
2.23517722e-01 2.22875091e-01 0.0
9.11303098e-01 2.00000000e-03 0.0
8.11015242e-01 3.66445807e-01 0.0
1.58635475e-02 1.23124500e-01 0.0
7.88772979e-01 2.00000000e-03 0.0
5.58512510e-01 1.05477407e-01 0.0
6.01603468e-01 2.00000000e-03 0.0
8.07385230e-01 5.22826010e-01 0.0
4.29724849e-01 4.01311863e-01 0.0
5.23798709e-01 2.00000000e-03 0.0
5.93289268e-01 2.00000000e-03 0.0
7.68877892e-01 6.16381769e-01 0.0
9.98000000e-01 4.06168047e-01 0.0
2.67471950e-01 9.68586547e-02 0.0
3.21879431e-01 2.00000000e-03 0.0
5.75547942e-01 2.00000000e-03 0.0
[...]
CELL_DATA 7404
SCALARS z float 1
LOOKUP_TABLE default
2.88516375e+00
3.74877726e+00
3.74877726e+00
6.30040233e+00
3.99175832e+00
6.30040233e+00
4.24984847e+00
3.36365562e+00
8.72045381e+00
4.16257571e+00
1.70499328e+01
6.51046557e+00
1.67669570e+01
6.51046557e+00
7.45483191e+00
5.42037800e+00
6.44544940e+00
5.73016151e+00
6.82906685e+00
3.60061159e+00
2.48735906e+01
3.63249963e+00
2.85514749e+00
2.55067006e+01
4.82503777e+00
4.82503777e+00
3.60061159e+00
6.50669365e+00
3.66087584e+00
6.62507073e+00
6.32679504e+00
6.32679504e+00
2.77345751e+00
3.21448600e+00
1.10598711e+01
4.11039745e+00
8.35984974e+00
2.24288085e+01
6.50669365e+00
3.60112663e+00
7.03128621e+00
1.35333442e+01
6.74763733e+00
4.11854844e+00
3.21448600e+00
1.18583049e+01
7.78941325e+00
6.47215416e+00
9.43333972e+00
5.82178099e+00
3.21279622e+00
6.95823348e+00
3.94775854e+00
3.48668418e+00
3.84939266e+00
2.88516375e+00
7.09314094e+00
5.74676811e+00
2.43042380e+01
2.76180157e+00
4.57620121e+00
7.45487184e+00
1.30482904e+01
3.99730746e+00
5.37790565e+00
1.33721545e+01
5.82178099e+00
7.23849259e+00
3.92021996e+00
5.45288406e+00
5.27723368e+00
3.26824726e+00
5.42037800e+00
5.27532995e+00
3.85812896e+00
3.10659959e+00
3.36365562e+00
8.88449533e+00
2.72333017e+00
5.37203149e+00
5.04330834e+00
8.62699661e+00
7.08786719e+00
3.32070936e+00
2.83377016e+01
3.78237357e+00
1.35181371e+01
4.84677857e+00
5.09570988e+00
1.03343661e+01
2.46904164e+00
2.46904164e+00
4.33523069e+00
4.78341554e+00
4.36413189e+00
4.36413189e+00
5.73147191e+00
1.09291517e+01
3.97430358e+00
2.73943566e+00
2.73943566e+00
1.16986078e+01
5.06762717e+00
1.09291517e+01
6.51414484e+00
5.94579746e+00
4.65403822e+00
4.63245182e+00
3.61273668e+00
1.26302242e+01
3.69911662e+00
8.27048687e+00
1.30278213e+01
7.34773791e+00
7.00699737e+00
7.63728802e+00
7.00699737e+00
8.60754168e+00
3.56708182e+00
5.89765301e+00
3.56708182e+00
1.16371025e+01
7.43003121e+00
4.70855300e+00
5.75241022e+00
6.36751237e+00
4.70855300e+00
9.59995962e+00
4.81997785e+00
3.21279622e+00
5.65951220e+00
5.65951220e+00
1.30542159e+01
7.59088993e+00
7.59088993e+00
2.77345751e+00
6.55288258e+00
5.88607364e+00
4.16142858e+00
3.99175832e+00
3.85353714e+00
4.89816724e+00
2.76180157e+00
6.76018555e+00
5.19707797e+00
3.84990122e+00
2.75295056e+00
8.35984974e+00
6.01904863e+00
8.86128127e+00
8.86128127e+00
1.12352908e+01
7.81152965e+00
4.95819041e+00
7.81152965e+00
4.01896899e+00
4.01896899e+00
5.27723368e+00
5.45288406e+00
3.95933832e+00
3.95933832e+00
1.27817248e+01
4.69065263e+00
1.64168345e+01
3.24106749e+00
8.71466807e+00
5.69689428e+00
3.50718681e+00
1.10986541e+01
4.84353891e+00
5.98773893e+00
1.25129556e+01
2.28136006e+01
5.01908542e+00
2.76649907e+00
2.76649907e+00
6.62160918e+00
1.92432452e+01
5.80109202e+00
6.19263783e+00
5.27771023e+00
4.76131485e+00
2.80748347e+00
2.04205330e+01
2.04205330e+01
3.85812896e+00
5.81030825e+00
6.81081045e+00
6.19263783e+00
5.80109202e+00
1.00776972e+01
3.66087584e+00
5.03860199e+00
5.57288374e+00
5.43589546e+00
9.03070581e+00
4.78137315e+00
3.10659959e+00
4.59745261e+00
5.31709975e+00
4.31847114e+00
7.15901033e+00
4.31847114e+00
2.72333017e+00
3.76686524e+00
6.70891674e+00
8.12347274e+00
6.42439043e+00
3.32070936e+00
7.08786719e+00
4.03419901e+00
4.03419901e+00
6.42439043e+00
3.78237357e+00
4.44225390e+00
6.38343537e+00
9.00861823e+00
9.41862425e+00
8.64267833e+00
3.12693576e+01
1.34040296e+01
6.13447459e+00
6.13447459e+00
2.28135996e+00
2.28135996e+00
4.15667492e+00
8.56574640e+00
4.72799627e+00
4.48085295e+00
7.89670351e+00
7.10986949e+00
1.81070184e+01
5.88892848e+00
1.10828433e+01
5.47523106e+00
4.63463102e+00
5.43078024e+00
2.79111882e+01
6.08333483e+00
8.53486300e+00
3.36821881e+00
3.36821881e+00
3.94852393e+00
3.94852393e+00
9.80604082e+00
1.26605827e+01
5.77581745e+00
5.79853944e+00
2.53193798e+01
1.32936385e+01
9.85285013e+00
5.27132919e+00
3.70208048e+00
6.35562930e+00
3.24013023e+00
3.24013023e+00
7.59098804e+00
6.95823348e+00
4.89063346e+00
4.89063346e+00
4.11854844e+00
5.67052643e+00
3.24734952e+00
3.39822985e+00
4.09872548e+00
4.45753751e+00
3.24734952e+00
3.59030051e+00
3.48668418e+00
4.81997785e+00
5.28548852e+00
5.34888843e+00
3.34000794e+00
6.51542481e+00
4.46490484e+00
2.93597987e+00
7.36780775e+00
2.93597987e+00
4.67103972e+00
7.36780775e+00
3.31047933e+00
3.31047933e+00
6.19784079e+00
4.95819041e+00
9.98434153e+00
6.35623311e+00
3.26824726e+00
5.06762717e+00
4.80638922e+00
1.10961985e+01
1.17752211e+01
4.52061882e+00
5.15273575e+00
5.91130171e+00
7.26023661e+00
4.35647175e+00
5.24008013e+00
4.79475633e+00
6.98460674e+00
1.84020746e+01
7.26023661e+00
1.05732666e+01
8.29443508e+00
5.63777897e+00
2.82335970e+00
8.17444526e+00
1.18749067e+01
3.75209817e+00
3.75209817e+00
7.59214675e+00
6.23488851e+00
8.90116050e+00
4.39733549e+00
7.00003745e+00
9.31167497e+00
4.92892230e+00
3.90377252e+00
7.07713077e+00
2.01730483e+01
6.54955843e+00
4.48054818e+00
1.64150778e+01
1.30386703e+01
6.08333483e+00
1.02457285e+01
5.07286935e+00
4.06616089e+00
5.88955598e+00
2.63239130e+00
4.93109998e+00
7.14058501e+00
3.36060505e+00
3.06407109e+00
4.26690287e+00
1.25129556e+01
2.54164847e+00
3.29743295e+00
7.07566349e+00
7.07566349e+00
3.45332434e+00
3.45332434e+00
2.80748347e+00
2.76496320e+00
2.19704106e+00
9.24110697e+00
4.03500389e+00
5.26168637e+00
5.26168637e+00
4.32322359e+00
4.32322359e+00
4.47729363e+00
2.96013071e+00
7.72056533e+00
3.07992649e+00
2.79195437e+00
2.79195437e+00
6.43830136e+01
5.81030825e+00
5.23656855e+00
3.77982471e+00
3.77982471e+00
8.99807883e+00
2.19704106e+00
6.90399026e+00
4.03500389e+00
1.91326937e+01
8.46103949e+00
4.30780111e+00
4.30780111e+00
4.25642523e+00
3.42389837e+00
4.62429744e+00
9.67125022e+00
4.82659489e+00
6.98726443e+00
4.82659489e+00
4.15450800e+00
4.69065263e+00
5.75905193e+00
2.82335970e+00
4.27462717e+00
3.46353252e+00
3.46353252e+00
5.23646823e+00
5.23646823e+00
3.54402387e+00
4.22422389e+00
4.86097616e+00
4.86097616e+00
5.40210042e+00
7.06951564e+00
4.78036559e+00
4.32731451e+00
6.24267206e+00
1.43507968e+01
3.25326129e+00
7.68385472e+00
3.37486192e+00
3.37486192e+00
2.69169921e+01
4.53624733e+00
3.54402387e+00
5.86631708e+00
8.56341098e+00
7.42624267e+00
8.22495893e+00
2.88069736e+00
8.64267833e+00
3.20277299e+00
3.47987308e+00
3.20277299e+00
7.39485561e+00
5.10486032e+00
9.54390405e+00
7.70801517e+00
5.64611506e+00
5.99860996e+00
3.61452493e+00
4.64904957e+00
5.25312143e+00
3.62636097e+00
7.24122432e+00
3.34711968e+00
3.54059008e+00
7.45371572e+00
5.71466534e+00
8.03411641e+00
2.19159594e+01
1.49046554e+01
8.53577012e+00
7.00081311e+00
7.00081311e+00
1.10608265e+01
1.04258262e+01
4.14288492e+00
8.74218978e+00
7.89670351e+00
4.23401158e+00
3.60214059e+00
3.30485690e+00
2.99041183e+00
2.34119557e+00
5.61612248e+00
2.34119557e+00
3.43674263e+00
1.30702736e+01
8.29926825e+00
2.99041183e+00
7.96587223e+01
7.74746869e+00
5.90328622e+00
5.43078024e+00
1.16004689e+01
1.37949113e+01
2.44802915e+01
1.19465250e+01
4.43884404e+00
4.31193810e+00
3.60606480e+00
1.03904383e+01
3.94893864e+00
1.02457285e+01
3.86648194e+00
9.01477976e+00
3.87292443e+00
4.15506853e+00
8.38654743e+00
6.04817562e+00
7.72697064e+00
4.71359699e+00
3.50718681e+00
5.52644446e+00
3.25708505e+00
2.78816910e+00
2.91261713e+00
1.07110203e+01
3.60606480e+00
8.96355726e+00
9.40770436e+00
8.53486300e+00
4.77870757e+00
6.51695363e+00
9.33056466e+00
3.50104145e+00
7.05725698e+00
6.08792823e+00
3.14726945e+00
7.80102433e+00
5.91929016e+00
9.80907689e+00
7.05417998e+00
9.22209049e+00
7.36897090e+00
6.66949232e+00
6.66949232e+00
1.20267783e+01
4.37789948e+00
5.77581745e+00
6.62790832e+00
4.63638066e+00
4.63638066e+00
4.59920757e+00
4.80338069e+00
4.02670868e+00
7.86814358e+00
1.64371302e+01
2.99024651e+00
6.55950588e+00
7.51630707e+00
9.70039032e+00
4.43884404e+00
9.70039032e+00
1.26302242e+01
5.83694108e+00
1.30877843e+01
5.83694108e+00
1.05437140e+01
5.28010707e+00
2.67543349e+00
2.61691159e+00
2.61691159e+00
6.07755183e+00
3.14393634e+00
4.08579106e+00
3.64397373e+00
3.14393634e+00
4.08579106e+00
3.64397373e+00
8.37781406e+00
3.67856653e+00
4.04482796e+00
1.15926299e+01
1.34857948e+01
4.74267947e+00
4.83202587e+00
3.06274279e+00
7.54946077e+00
5.48530105e+00
4.13852594e+00
3.34000794e+00
3.97190475e+00
2.75295056e+00
4.52240931e+00
6.26814418e+00
5.75241022e+00
4.57620121e+00
3.55168689e+00
3.55168689e+00
1.80476540e+01
4.16257571e+00
4.49202804e+00
1.13661945e+01
8.77323175e+00
6.98460674e+00
4.77746164e+00
1.43429270e+01
2.09589933e+01
3.96917052e+00
3.96917052e+00
4.70345982e+00
8.18024967e+00
7.91200308e+00
6.76092641e+00
1.50593332e+01
3.82815645e+01
1.30536124e+01
6.76092641e+00
1.10961985e+01
1.50593332e+01
6.46077848e+00
2.87718077e+00
2.87718077e+00
7.52458811e+00
6.11915566e+00
5.10694656e+00
1.00250337e+01
3.85690834e+00
4.57504390e+00
5.15273575e+00
5.98989205e+00
9.11303755e+00
9.45616654e+00
6.12041249e+00
5.51282301e+00
4.02661852e+00
4.47638243e+00
3.84458263e+00
6.49451627e+00
4.47638243e+00
5.88068616e+00
1.09025938e+01
3.74216034e+00
8.35571950e+00
7.21983164e+00
7.41638639e+00
5.15184008e+00
8.36678555e+00
1.22996158e+01
7.95768108e+00
9.11303755e+00
6.98102895e+00
8.62182337e+00
4.41879533e+00
4.41879533e+00
3.61840008e+00
4.23883835e+00
6.17996983e+00
6.98726443e+00
7.57344847e+00
9.75925722e+00
3.55318385e+00
3.89309864e+00
6.77838322e+00
9.08329753e+00
8.29443508e+00
8.90827291e+00
2.62292509e+00
2.62292509e+00
6.20576275e+00
5.63777897e+00
8.28386842e+00
5.23559437e+00
4.44513333e+00
1.75215532e+01
5.53746926e+00
1.49113274e+01
2.94182655e+00
3.56527094e+00
3.66034889e+00
3.66034889e+00
5.15470262e+00
4.45759031e+00
4.45759031e+00
5.05257745e+00
3.23185511e+00
3.50150780e+00
6.11915566e+00
4.52061882e+00
3.50150780e+00
1.21994121e+01
3.07992196e+00
3.45544556e+00
4.09696710e+00
5.03456700e+00
8.72755619e+00
2.54805788e+00
5.77138373e+00
5.41720606e+00
3.93744583e+00
3.87889214e+00
7.95847391e+00
3.71983410e+00
6.53249277e+00
4.59852893e+00
5.75905193e+00
8.01802018e+00
5.31731903e+00
2.63239130e+00
4.08466291e+00
1.85784346e+01
1.21839010e+01
4.89754240e+00
5.50829324e+00
4.64262755e+00
4.64262755e+00
4.48054818e+00
9.04729600e+00
9.26308515e+00
2.55873269e+00
6.63027092e+00
2.55873269e+00
4.63463102e+00
1.11511729e+01
7.73201115e+00
4.26690287e+00
5.34277652e+00
3.24106749e+00
1.88071936e+01
8.34111703e+00
4.53770768e+00
4.53770768e+00
1.90090818e+01
1.30839727e+01
3.24846817e+00
4.93109998e+00
5.46809489e+00
7.21669771e+00
8.34111703e+00
4.86115087e+00
1.62114099e+01
6.09086514e+00
2.63431697e+00
2.63431697e+00
4.06616089e+00
1.27232021e+01
2.54164847e+00
2.21952468e+00
4.26052501e+00
5.57806165e+01
7.29672798e+00
7.29672798e+00
3.17467745e+00
8.85284986e+00
8.85284986e+00
7.39708434e+00
1.39817197e+01
2.67318078e+01
9.51126219e+00
2.28092590e+01
1.76296393e+01
3.82343195e+00
4.42064296e+00
3.82343195e+00
3.57737123e+00
5.82856535e+00
3.57737123e+00
2.55768843e+00
2.55768843e+00
2.21952468e+00
4.25642523e+00
5.13643003e+00
7.81863643e+00
3.66376249e+01
5.75653832e+00
2.96013071e+00
5.30848794e+00
3.60538750e+00
3.27061257e+00
4.59479281e+00
3.78238338e+00
4.08539542e+00
3.78238338e+00
8.22495893e+00
1.51189177e+01
3.13982301e+01
1.44584503e+01
4.62429744e+00
4.81994606e+00
5.64611506e+00
9.85193558e+00
1.57544289e+01
5.28399485e+00
4.15450800e+00
7.66529510e+00
6.50486015e+00
6.50486015e+00
4.21085820e+00
3.31320691e+00
3.31320691e+00
3.32948105e+00
7.87052153e+00
3.25326129e+00
4.32731451e+00
1.80428677e+01
5.04330834e+00
1.26248986e+01
4.27462717e+00
7.38213106e+00
8.61860958e+00
8.61860958e+00
5.53746926e+00
2.35094763e+01
7.94795158e+00
2.46694470e+00
8.63816989e+00
2.88069736e+00
5.62511037e+00
5.62511037e+00
6.69888262e+00
1.22395548e+01
4.26708973e+00
1.08723836e+01
7.39485561e+00
5.55280743e+00
8.49211998e+00
2.85955321e+00
5.55280743e+00
8.49211998e+00
5.49319964e+00
3.92258343e+00
3.92258343e+00
8.07229814e+00
1.27365353e+01
3.61452493e+00
2.83405396e+00
9.23472432e+00
5.57187815e+00
5.88717435e+00
2.22546556e+00
2.22546556e+00
2.18111173e+00
3.84462056e+00
5.03765071e+00
4.15254606e+00
2.61548608e+00
4.15254606e+00
1.08620444e+01
6.67060057e+00
1.16246826e+01
5.90309907e+00
9.60606560e+00
5.37984796e+00
1.29312707e+01
1.38106613e+01
4.12656212e+00
4.12656212e+00
5.28765888e+00
5.50311934e+00
1.43814192e+01
9.97093264e+00
8.53577012e+00
8.42417259e+00
6.34888821e+00
1.45365880e+01
8.43457502e+00
5.57395540e+01
8.43457502e+00
3.53657575e+01
4.51245520e+00
1.48533985e+01
3.54059008e+00
3.40785205e+00
5.50630607e+00
5.42965844e+00
5.71466534e+00
8.69197431e+00
8.69197431e+00
1.01246193e+01
6.90432376e+00
1.08189934e+01
4.02919161e+00
4.28075591e+00
4.14288492e+00
4.23401158e+00
4.02191163e+00
4.02191163e+00
2.49732112e+01
3.18197714e+01
3.61273668e+00
6.77348710e+00
3.30232852e+00
3.30232852e+00
6.58381035e+00
6.58381035e+00
1.01948735e+01
1.01948735e+01
1.21849956e+01
6.10357075e+00
3.44625690e+00
3.44625690e+00
6.99016593e+00
6.99016593e+00
2.31241142e+00
2.31241142e+00
3.83610209e+00
3.83610209e+00
3.98092980e+00
3.98092980e+00
6.13768620e+00
1.15742491e+01
4.29252579e+00
4.29252579e+00
9.68862132e+00
9.68862132e+00
1.06032090e+01
6.53059663e+00
2.80234278e+00
4.15506853e+00
8.38654743e+00
3.87292443e+00
8.86342536e+00
2.80234278e+00
1.81802419e+01
7.94659804e+00
1.67751452e+01
7.94659804e+00
4.49370711e+00
3.15892146e+00
6.11700600e+00
2.81997346e+01
6.35233515e+00
2.44723664e+00
3.65187059e+00
4.54395866e+00
8.32348366e+00
8.68959882e+00
3.76693729e+00
3.76693729e+00
9.57133141e+00
4.36146932e+00
5.91929016e+00
4.36146932e+00
3.14726945e+00
5.40075855e+00
7.05417998e+00
5.40075855e+00
3.08214703e+01
3.87659459e+00
4.96775973e+00
3.87659459e+00
6.36203451e+00
6.27362171e+00
3.12087424e+00
8.37635022e+00
1.11592345e+01
3.26954830e+00
4.28333350e+00
5.84034456e+00
3.05621510e+00
2.64768950e+00
9.77278905e+00
2.99024651e+00
4.18837361e+00
3.85611672e+00
3.85611672e+00
6.79641549e+00
3.09127501e+00
3.09127501e+00
3.93736310e+00
1.91144477e+01
6.61906955e+00
7.22263583e+00
5.17880027e+00
5.87143642e+00
5.87143642e+00
1.26063515e+01
1.07723801e+01
3.01273607e+00
1.82493148e+01
1.34434811e+01
5.92662350e+00
3.96241041e+00
2.56048432e+00
2.56048432e+00
9.89173401e+00
2.62337821e+00
8.07883779e+00
2.73717024e+00
5.39312411e+00
7.08282652e+00
4.70345982e+00
7.15005154e+00
5.10694656e+00
7.32147057e+00
7.25018916e+00
7.25018916e+00
7.32147057e+00
1.21116214e+01
1.21116214e+01
5.79458562e+00
1.05073845e+01
7.91200308e+00
7.33694397e+00
4.93330081e+00
5.15860720e+00
4.09696710e+00
4.92892230e+00
1.51267502e+01
5.27650434e+00
5.03456700e+00
3.90377252e+00
2.50071347e+00
2.50071347e+00
3.35960559e+00
6.67804605e+00
2.39636094e+01
5.30346203e+00
4.07399149e+00
4.07399149e+00
3.85129750e+00
4.53738592e+00
5.24008013e+00
1.10516735e+01
6.97621315e+00
3.84458263e+00
1.09195744e+01
5.79283666e+00
5.75268754e+00
7.05047993e+00
5.75268754e+00
1.23962649e+01
4.70146633e+00
1.16144617e+01
4.70146633e+00
1.02865305e+01
6.90181236e+00
4.11516091e+00
9.08372364e+00
9.03608326e+00
7.95768108e+00
7.23612944e+00
3.72157548e+00
7.23612944e+00
3.47789581e+00
4.68727104e+00
2.46694470e+00
7.54359483e+00
7.37366883e+00
7.37366883e+00
7.63336120e+00
7.63336120e+00
3.52453237e+00
3.47789581e+00
4.62554832e+00
4.91150044e+00
4.91150044e+00
1.11600960e+01
1.69776535e+01
3.89309864e+00
2.72872830e+00
2.72872830e+00
5.67975470e+00
3.05598188e+00
3.05598188e+00
3.41267997e+00
4.71534514e+00
4.71534514e+00
4.49299503e+00
4.49299503e+00
1.11582227e+01
3.41582678e+00
3.41582678e+00
6.20576275e+00
4.90291654e+00
4.90291654e+00
4.10339129e+00
1.08259288e+01
8.55119762e+00
9.37038124e+00
8.55119762e+00
7.33694397e+00
4.24419554e+00
6.11998780e+00
6.11998780e+00
4.86610391e+00
4.12663945e+00
5.23559437e+00
8.03254655e+00
8.98570716e+00
8.98570716e+00
3.41246893e+00
5.28135391e+00
7.39479258e+00
6.91548098e+00
4.40766162e+00
3.07992196e+00
8.90980174e+00
6.92829862e+00
1.49482019e+01
8.57771925e+00
7.36922495e+00
3.56250864e+00
4.09886767e+00
4.09886767e+00
6.41248822e+00
3.38266104e+00
4.83244992e+00
3.56527094e+00
8.98497114e+00
3.38266104e+00
4.08466291e+00
8.68734464e+00
8.62810289e+00
7.97483615e+00
4.44513333e+00
1.35743369e+01
4.15939708e+01
8.94639202e+00
5.11869016e+00
4.57545662e+00
6.29668546e+00
7.05126189e+00
7.05126189e+00
2.91261713e+00
3.25708505e+00
1.73467022e+01
3.24846817e+00
3.98463725e+00
3.36966373e+00
5.02544486e+00
3.99841960e+00
5.02544486e+00
3.36060505e+00
5.85258956e+00
1.01463710e+01
6.44620278e+00
2.58044280e+00
2.58044280e+00
3.29743295e+00
1.17074186e+01
5.04320824e+00
4.24731698e+00
4.24731698e+00
3.99784138e+00
2.16833774e+00
5.51774425e+00
4.26052501e+00
4.62020376e+00
1.03427893e+01
4.47729363e+00
4.76131485e+00
3.86869684e+01
4.17158592e+00
4.29890295e+00
4.17158592e+00
1.01230077e+01
5.38024845e+00
3.65728196e+01
5.46718206e+00
5.30848794e+00
8.65474760e+00
7.00118819e+00
9.61440282e+00
1.00459021e+01
9.09773397e+00
5.35566841e+00
1.01230077e+01
5.46718206e+00
2.97784891e+00
2.98038919e+00
1.23297070e+01
4.13015609e+00
4.13015609e+00
3.31289944e+00
2.94182655e+00
5.92808534e+00
3.93281916e+00
8.84997400e+00
8.18698765e+00
5.99356537e+00
5.99356537e+00
3.57816989e+00
3.70500671e+00
4.09966410e+00
5.53841206e+00
2.42719417e+01
7.09893131e+00
1.35675884e+01
2.94298487e+00
6.78055999e+00
9.66671431e+00
3.44700215e+00
8.19591848e+00
8.60699941e+00
6.36256756e+00
6.36256756e+00
5.02565259e+00
8.30477565e+00
9.68501822e+00
2.74338748e+00
3.72877569e+00
2.74338748e+00
1.31802764e+01
8.65384832e+00
8.30046089e+00
5.80566568e+00
4.06250654e+00
6.57151471e+00
2.83405396e+00
3.33459331e+00
9.37458884e+00
3.12935842e+00
3.12935842e+00
6.87504476e+00
4.58168066e+00
8.96557582e+00
5.25312143e+00
4.08497080e+00
2.18111173e+00
1.07515026e+01
6.75624665e+00
8.06077889e+00
1.66325969e+01
4.50321362e+00
4.50321362e+00
6.74876540e+00
5.03765071e+00
7.59223488e+00
5.02565259e+00
6.87504476e+00
3.62636097e+00
5.14552043e+00
4.08497080e+00
1.04448757e+01
4.11516091e+00
7.64687625e+00
7.39301007e+00
4.37974369e+00
4.50876150e+00
4.50876150e+00
2.82306897e+00
9.00629374e+00
1.24864179e+01
6.74876540e+00
6.75624665e+00
5.80417987e+00
5.80417987e+00
5.35943998e+00
1.00714881e+01
3.01927403e+00
9.76752309e+00
4.87277251e+00
1.02624124e+01
4.62700414e+00
4.62700414e+00
6.31550578e+00
5.37342522e+00
7.69458217e+00
3.92989069e+00
3.92989069e+00
1.31802764e+01
7.69458217e+00
6.43684556e+00
5.58054728e+00
4.66395331e+00
4.66395331e+00
7.54946077e+00
1.06652224e+01
1.25822787e+01
6.17646830e+00
4.59745261e+00
3.84462056e+00
1.43003339e+01
4.08815553e+00
4.45853777e+00
9.26390587e+00
5.35943998e+00
4.05949839e+00
4.05949839e+00
1.28948721e+01
4.01047862e+00
4.01047862e+00
6.31674483e+00
6.31674483e+00
6.35828405e+00
6.35828405e+00
2.29896317e+00
2.24031853e+00
5.07498250e+00
3.33922648e+00
1.05956135e+01
5.07498250e+00
5.51582698e+00
1.35884663e+01
1.34926950e+01
6.79567518e+00
6.97567722e+00
6.75958641e+00
3.82807273e+00
6.56099688e+00
3.82807273e+00
1.16627714e+01
5.74979680e+00
5.08101421e+00
4.02919161e+00
1.39144775e+01
8.86216454e+00
2.61548608e+00
5.55213908e+00
2.82306897e+00
4.37974369e+00
8.61053582e+00
5.50311934e+00
3.22276116e+00
3.22276116e+00
3.26492364e+00
4.13241727e+00
3.18587944e+00
3.18587944e+00
5.57395540e+01
6.65343681e+00
7.02412372e+00
1.70820148e+01
8.00573274e+00
5.79958845e+00
3.89189192e+00
7.23245218e+00
3.88030424e+00
3.88030424e+00
6.49661633e+00
7.61968677e+00
6.32828022e+00
1.08029260e+01
1.08029260e+01
4.77708500e+00
4.77708500e+00
4.13774256e+00
3.62098789e+00
3.62098789e+00
1.17074186e+01
4.49370711e+00
2.37398896e+00
2.79107040e+01
2.14431257e+01
5.21173757e+00
3.86083450e+00
7.39797398e+00
4.05008012e+01
2.65820677e+01
5.79850601e+00
3.55593089e+00
8.79615160e+00
9.85720102e+00
9.82467642e+00
7.20514541e+00
3.51230298e+00
3.51230298e+00
8.39825713e+00
1.00648408e+01
4.29232092e+00
7.22568288e+00
4.40883998e+00
4.40883998e+00
1.45175647e+01
1.32132177e+01
6.13274752e+00
6.13274752e+00
1.32132177e+01
6.55950588e+00
3.01273607e+00
9.84645548e+00
1.04552460e+01
5.60529034e+00
7.15720202e+00
1.36778394e+01
8.57201447e+00
1.70298804e+01
5.04694236e+00
4.28333350e+00