# vtk DataFile Version 2.0
z-phase-transition mesh
ASCII
DATASET UNSTRUCTURED_GRID

POINTS 12000 float
1.45757541e-01 2.98097549e-01 0.0
3.75693915e-01 8.19973491e-01 0.0
8.23255234e-01 3.56610494e-01 0.0
2.26350277e-01 8.83718409e-01 0.0
6.95972254e-01 8.12062340e-01 0.0
3.84523220e-01 3.40431385e-01 0.0
5.49134336e-01 8.38436050e-01 0.0
4.41089300e-01 2.01898339e-02 0.0
9.05582806e-01 4.16990251e-01 0.0
3.26478858e-01 3.97523230e-01 0.0
6.02863973e-01 1.00000000e-03 0.0
8.69010498e-01 2.00915967e-01 0.0
1.12092376e-01 1.00000000e-03 0.0
1.35536869e-01 1.17237419e-01 0.0
2.27120594e-01 6.13964230e-01 0.0
4.38149245e-01 8.91812507e-01 0.0
3.20928575e-01 8.17338297e-02 0.0
8.43654433e-01 2.91585481e-01 0.0
8.88181037e-01 5.05770224e-01 0.0
3.54387825e-01 1.06748082e-01 0.0
9.75366855e-01 3.66432721e-02 0.0
8.70682200e-01 4.75356014e-01 0.0
6.63423137e-02 8.80344981e-01 0.0
6.86341208e-01 5.77134628e-01 0.0
9.47585401e-01 5.16859052e-01 0.0
9.54754949e-01 1.85599048e-01 0.0
1.27968070e-01 9.99000000e-01 0.0
5.02288346e-01 7.77357626e-01 0.0
3.86665364e-01 7.61850447e-02 0.0
1.37625286e-01 1.00000000e-03 0.0
1.33413114e-01 6.82221019e-01 0.0
1.05950456e-01 5.90657809e-01 0.0
2.24569129e-01 3.32195493e-01 0.0
3.39178716e-01 9.74622098e-01 0.0
1.89718707e-01 4.14812799e-01 0.0
4.28599094e-01 3.17927484e-01 0.0
3.88275164e-01 6.89072536e-01 0.0
9.74362477e-02 7.03955146e-01 0.0
4.71007172e-02 9.65469004e-01 0.0
3.76149370e-01 6.79343860e-01 0.0
5.63321420e-01 5.37405212e-01 0.0
8.27851559e-01 4.30748812e-01 0.0
5.24540450e-01 4.74866826e-01 0.0
7.00871705e-01 1.35209179e-01 0.0
2.51723222e-01 3.32649433e-02 0.0
8.14384703e-01 5.46583929e-02 0.0
2.39800329e-01 4.85758554e-01 0.0
5.23625903e-01 4.17087774e-01 0.0
7.70578096e-01 4.83071531e-01 0.0
4.36125664e-01 3.85914040e-01 0.0
9.69353060e-01 7.20205894e-01 0.0
4.31514144e-01 3.48745122e-02 0.0
3.87855136e-01 1.00000000e-03 0.0
1.00000000e-03 6.10554401e-01 0.0
9.99000000e-01 6.73390810e-01 0.0
1.00000000e-03 4.51678294e-01 0.0
2.08970181e-01 5.02144900e-01 0.0
8.59207893e-02 5.76927937e-01 0.0
2.81991167e-01 9.99000000e-01 0.0
3.92446533e-01 2.86192892e-01 0.0
3.37089391e-01 7.65099934e-02 0.0
4.35570047e-01 5.81881045e-01 0.0
5.42935213e-01 4.87065690e-01 0.0
5.07823371e-01 2.08007900e-01 0.0
2.70051502e-01 9.18627300e-02 0.0
8.32094764e-01 6.76365298e-01 0.0
9.13327412e-01 9.41566442e-01 0.0
4.52300323e-01 4.43928314e-01 0.0
8.21558238e-01 5.08579383e-01 0.0
5.02068253e-01 7.76055494e-01 0.0
7.47810261e-01 3.78984485e-01 0.0
1.96793567e-01 3.95136803e-01 0.0
5.78279882e-02 2.39425933e-01 0.0
8.71673769e-01 4.66049050e-01 0.0
5.33246364e-01 6.22052408e-02 0.0
1.85519549e-01 3.29171012e-01 0.0
5.74420570e-02 7.67683937e-01 0.0
8.43376266e-01 9.83974968e-01 0.0
2.95103305e-01 4.24490423e-01 0.0
1.28310747e-01 1.00000000e-03 0.0
4.00607638e-01 5.49306576e-01 0.0
2.08402534e-01 6.96338783e-01 0.0
6.73827072e-01 5.66875146e-02 0.0
9.83837923e-01 8.91604663e-01 0.0
7.77165963e-01 9.26365207e-01 0.0
4.67619242e-01 5.23461770e-01 0.0
4.11001005e-01 8.15693958e-01 0.0
1.00000000e-03 7.76788963e-01 0.0
1.00000000e-03 6.45726573e-01 0.0
4.39931977e-01 1.74657560e-01 0.0
4.42660712e-02 5.15776485e-02 0.0
1.00514049e-01 7.44577195e-01 0.0
8.36555800e-01 9.26890198e-01 0.0
6.80302746e-01 8.35223937e-01 0.0
9.70236403e-01 1.85653441e-01 0.0
5.19545487e-01 5.19571706e-01 0.0
4.59016214e-01 4.15543260e-01 0.0
5.28988968e-01 2.27362388e-01 0.0
8.59745935e-01 6.37199684e-01 0.0
2.78392563e-01 1.00000000e-03 0.0
3.71267786e-01 4.54933697e-01 0.0
3.53075629e-01 8.28415487e-01 0.0
8.96396922e-01 6.88485239e-01 0.0
2.18767589e-01 8.94238071e-01 0.0
4.48148917e-01 1.00000000e-03 0.0
9.00218987e-01 6.33667617e-01 0.0
5.78271205e-01 9.25147029e-02 0.0
6.74767349e-01 3.70328705e-01 0.0
5.28387553e-01 1.00000000e-03 0.0
5.85823386e-01 9.92836406e-01 0.0
1.31163428e-01 8.21458709e-02 0.0
3.34783222e-01 9.79904364e-01 0.0
3.47753559e-01 9.99000000e-01 0.0
1.00000000e-03 4.74824720e-01 0.0
5.38800340e-01 1.07906232e-01 0.0
5.56683395e-01 9.99000000e-01 0.0
9.58952584e-01 2.25077499e-01 0.0
1.75282667e-01 1.73382683e-01 0.0
8.99791867e-01 1.36586207e-01 0.0
5.45011609e-01 1.76122055e-01 0.0
3.30488733e-01 6.17709121e-01 0.0
2.22694486e-01 6.23651812e-01 0.0
1.81840488e-01 6.34561830e-01 0.0
5.37977180e-01 6.76734089e-01 0.0
8.67693528e-01 3.99414644e-01 0.0
1.00000000e-03 9.99000000e-01 0.0
8.79418409e-01 6.79772628e-01 0.0
9.77906754e-01 6.08313638e-02 0.0
9.28698959e-01 8.41810651e-01 0.0
3.98137385e-01 7.61824280e-01 0.0
9.98451966e-01 1.62085689e-01 0.0
2.47579863e-01 5.94317277e-01 0.0
5.59102075e-01 5.30717618e-01 0.0
2.14281104e-01 8.70512959e-02 0.0
1.00000000e-03 1.00000000e-03 0.0
4.43958164e-01 4.96233550e-01 0.0
8.47639266e-01 5.80328010e-01 0.0
5.39553098e-01 9.99000000e-01 0.0
4.76616442e-01 4.54167859e-01 0.0
1.00000000e-03 4.19158988e-01 0.0
7.91276721e-01 7.54651899e-01 0.0
8.89372778e-01 4.77035683e-01 0.0
4.66029501e-01 3.39115624e-01 0.0
2.23493471e-01 2.06769436e-02 0.0
5.09611744e-01 3.66986425e-01 0.0
4.77965767e-01 5.54725803e-01 0.0
5.92124443e-01 7.78944745e-01 0.0
8.24471599e-01 5.17732114e-01 0.0
7.14677474e-01 3.52590370e-01 0.0
8.35557158e-01 4.98988711e-01 0.0
3.64475632e-01 5.89901167e-01 0.0
3.70607729e-01 9.01730536e-01 0.0
8.68478727e-01 6.21005576e-01 0.0
1.45292305e-01 5.33100488e-01 0.0
6.60771913e-01 9.38594676e-01 0.0
7.35022131e-01 8.26681204e-01 0.0
5.15219085e-01 6.31993113e-01 0.0
3.78767618e-01 7.37191199e-01 0.0
3.35729523e-01 7.06796281e-02 0.0
3.16895880e-01 1.27985114e-01 0.0
7.40186394e-01 5.32218439e-01 0.0
1.00000000e-03 8.85301290e-01 0.0
4.07198751e-01 3.36970321e-01 0.0
5.28782688e-01 3.80302119e-01 0.0
7.13014852e-01 3.27430365e-01 0.0
5.72019558e-01 5.31462962e-01 0.0
8.65851214e-01 1.79736216e-01 0.0
6.57118782e-01 4.96533500e-01 0.0
8.04953131e-01 6.88627703e-01 0.0
3.88701704e-01 9.99000000e-01 0.0
8.36095233e-01 3.27962272e-02 0.0
9.55886461e-01 8.46543232e-01 0.0
9.12864190e-01 9.73117340e-02 0.0
6.56690946e-01 9.19858432e-01 0.0
3.68041643e-01 9.79624929e-01 0.0
3.69909060e-01 9.99000000e-01 0.0
4.96242503e-01 1.00000000e-03 0.0
6.28601012e-01 1.26261802e-01 0.0
6.86350037e-02 9.03471433e-01 0.0
7.46439001e-01 3.26813462e-01 0.0
2.17983938e-01 6.58681282e-01 0.0
5.34425358e-01 4.21654718e-01 0.0
2.99020276e-01 9.79605442e-02 0.0
2.88913619e-01 9.24182752e-01 0.0
2.23996288e-01 8.73804049e-02 0.0
5.16386833e-01 2.02610099e-01 0.0
8.88333307e-01 2.77356560e-01 0.0
7.37340800e-01 1.00000000e-03 0.0
3.97755494e-01 3.74498588e-01 0.0
7.54112288e-01 2.23117177e-01 0.0
3.98275548e-01 5.40417550e-01 0.0
1.00000000e-03 9.90175177e-01 0.0
4.24872858e-01 2.44007983e-01 0.0
8.72427074e-01 1.00000000e-03 0.0
9.99000000e-01 9.99000000e-01 0.0
8.90567770e-02 5.92239896e-01 0.0
5.49914286e-01 8.91797782e-02 0.0
2.55361873e-01 8.36857451e-01 0.0
3.99298037e-01 1.00000000e-03 0.0
4.47360903e-01 4.91917655e-01 0.0
6.75819863e-01 3.94941971e-02 0.0
7.77042993e-01 1.64262943e-01 0.0
2.75059717e-01 5.22367998e-01 0.0
1.00000000e-03 3.44688048e-02 0.0
7.97112874e-01 4.22190251e-01 0.0
1.00000000e-03 3.19818106e-03 0.0
8.47186994e-01 1.03289538e-01 0.0
7.22289281e-01 4.68275371e-01 0.0
6.24012380e-01 9.26898714e-01 0.0
1.49981235e-02 7.10510319e-02 0.0
9.54311705e-01 5.12286169e-01 0.0
4.36407034e-01 8.98950097e-01 0.0
5.79053400e-01 8.95314426e-01 0.0
5.60850187e-01 2.22836026e-01 0.0
1.00000000e-03 2.54272023e-01 0.0
4.50976994e-02 6.37770883e-01 0.0
6.68283561e-01 7.01764685e-01 0.0
2.00306488e-01 1.64515175e-01 0.0
4.55703381e-01 7.17729726e-01 0.0
6.36033578e-01 8.07740520e-01 0.0
8.39917952e-01 2.64896235e-01 0.0
8.54336134e-01 6.90665151e-01 0.0
5.64875138e-01 5.58266925e-01 0.0
3.62468552e-01 6.78513307e-01 0.0
9.37196725e-01 5.27827031e-01 0.0
1.00000000e-03 9.68616448e-01 0.0
1.00000000e-03 4.00976338e-01 0.0
5.39099850e-01 4.42762538e-01 0.0
8.25417274e-01 4.73660605e-01 0.0
1.00000000e-03 7.14708880e-01 0.0
7.43635674e-01 3.27182012e-01 0.0
4.18829014e-01 1.28321130e-01 0.0
8.90565563e-01 9.02478304e-01 0.0
2.46021668e-01 4.47868915e-01 0.0
5.90813408e-01 5.18316420e-01 0.0
8.08324965e-01 2.49978634e-01 0.0
3.99947113e-01 1.00000000e-03 0.0
1.19208838e-01 4.87917288e-01 0.0
9.82721284e-01 3.00764543e-01 0.0
5.48539487e-01 9.10344364e-01 0.0
7.96463138e-01 2.64399777e-01 0.0
1.00000000e-03 6.49146499e-01 0.0
1.00000000e-03 8.08929414e-01 0.0
5.43855549e-01 9.99000000e-01 0.0
2.01880784e-01 7.83786645e-02 0.0
3.38989482e-02 2.37452442e-01 0.0
2.05534131e-01 3.73399042e-01 0.0
8.72322493e-01 9.05410898e-01 0.0
9.86878806e-01 5.04439809e-01 0.0
4.04278262e-01 4.86293629e-01 0.0
1.00000000e-03 1.15277043e-01 0.0
3.31340509e-01 7.65252502e-01 0.0
1.70306657e-01 3.57475675e-01 0.0
1.00000000e-03 5.29149671e-01 0.0
4.80931431e-01 3.96211764e-01 0.0
2.50338209e-01 6.51402895e-01 0.0
4.63222646e-01 1.00000000e-03 0.0
3.35939108e-01 2.00172045e-01 0.0
3.49973973e-01 5.99310894e-01 0.0
3.73233314e-01 8.10407332e-01 0.0
5.43256193e-01 7.65378537e-01 0.0
2.79102650e-01 6.47280006e-01 0.0
6.43927579e-01 1.86133495e-02 0.0
9.98592866e-01 3.79218694e-01 0.0
2.53657974e-01 4.19192683e-01 0.0
6.83817896e-01 9.21477901e-01 0.0
7.37946117e-01 2.92101069e-01 0.0
7.14021759e-01 8.79290739e-01 0.0
9.14478563e-01 6.37808916e-01 0.0
4.07828903e-01 9.10892827e-01 0.0
5.65369202e-01 2.85309613e-01 0.0
9.73028623e-01 7.99874677e-01 0.0
1.11031356e-01 7.31540209e-01 0.0
1.24752553e-02 2.81012185e-01 0.0
8.10647867e-01 9.40298754e-01 0.0
4.42741639e-01 8.40851847e-01 0.0
7.52281156e-01 5.69131074e-01 0.0
7.36022679e-01 9.54968950e-01 0.0
8.46408082e-01 3.45308666e-01 0.0
9.10348127e-01 2.71197092e-01 0.0
7.71867226e-01 4.03189413e-01 0.0
1.69417250e-01 7.87224468e-01 0.0
2.68853841e-01 5.23706693e-01 0.0
8.95371349e-01 9.91781100e-02 0.0
1.86653161e-01 6.91598410e-01 0.0
6.65979525e-01 6.60295085e-01 0.0
1.00000000e-03 4.27404612e-01 0.0
5.94858074e-01 1.24983299e-01 0.0
7.13037556e-01 6.60939538e-01 0.0
6.93434863e-01 6.65634201e-01 0.0
1.76590148e-01 3.56377777e-01 0.0
[...]
CELL_DATA 22306
SCALARS z float 1
LOOKUP_TABLE default
2.97173988e+00
2.13361789e+00
1.91612539e+00
2.28897391e+00
1.91612539e+00
2.47180954e+00
2.30270703e+00
1.94012981e+00
2.20928712e+00
1.93719084e+00
1.93719084e+00
1.93773828e+00
2.00273810e+00
1.96756071e+00
2.00814987e+00
1.93700644e+00
1.98224612e+00
2.15271834e+00
2.19413685e+00
1.90952699e+00
1.92117097e+00
1.96468003e+00
1.91038355e+00
1.99682785e+00
2.26519999e+00
2.05138066e+00
2.47180954e+00
2.15948863e+00
2.07671915e+00
1.99538989e+00
2.26817547e+00
2.17531659e+00
1.99682785e+00
1.90461212e+00
2.25857942e+00
1.98281097e+00
2.44772516e+00
2.02639529e+00
2.02639529e+00
2.03075867e+00
2.03075867e+00
2.71341954e+00
1.91935707e+00
2.04985315e+00
2.04985315e+00
2.19385946e+00
1.98657607e+00
1.98657607e+00
2.03097409e+00
2.03097409e+00
2.10742194e+00
2.17330050e+00
2.01197148e+00
1.92523935e+00
2.07174504e+00
1.98067565e+00
2.01882804e+00
1.90460500e+00
2.38848076e+00
2.23471089e+00
2.35569625e+00
2.89227182e+00
2.16944126e+00
2.19668402e+00
2.19668402e+00
1.92570096e+00
1.92989461e+00
1.92989461e+00
2.05137824e+00
2.03215425e+00
1.95445019e+00
2.78200351e+00
2.03790400e+00
1.89796269e+00
1.94778819e+00
2.17696892e+00
1.96300393e+00
1.96300393e+00
2.10812471e+00
2.10189976e+00
2.10189976e+00
1.99695195e+00
2.13641478e+00
2.14298019e+00
1.96185421e+00
1.98644634e+00
2.43115851e+00
2.21082927e+00
2.21082927e+00
2.45774577e+00
2.83816561e+00
1.90663485e+00
1.99021580e+00
2.22034042e+00
1.89970465e+00
2.17623526e+00
2.09928063e+00
1.99749230e+00
1.99904834e+00
2.09928063e+00
2.11841966e+00
2.27801309e+00
1.96379078e+00
1.93286749e+00
1.95407182e+00
2.02032024e+00
1.89990828e+00
2.43443279e+00
1.98224612e+00
1.97497091e+00
2.10284646e+00
1.92152055e+00
2.37489135e+00
3.27623736e+00
2.11852846e+00
2.01985402e+00
1.94632035e+00
1.94179371e+00
2.08702980e+00
1.88894464e+00
2.51701800e+00
1.96719374e+00
2.07245040e+00
2.44948405e+00
2.53736871e+00
2.28971034e+00
1.89917833e+00
1.89917833e+00
2.54233088e+00
2.00183685e+00
2.00183685e+00
2.35370558e+00
1.90461212e+00
1.95487945e+00
1.89089946e+00
2.25857942e+00
2.37586307e+00
1.91935707e+00
2.27284603e+00
1.94993859e+00
2.06409782e+00
1.94993859e+00
1.97220876e+00
2.05940513e+00
2.16907712e+00
1.97220876e+00
2.42578336e+00
2.04469249e+00
2.08908279e+00
2.23906590e+00
2.21268452e+00
2.18249791e+00
2.03022065e+00
2.44913009e+00
1.94520746e+00
1.99629734e+00
1.94520746e+00
2.37106393e+00
2.02706587e+00
2.00557170e+00
1.89675730e+00
2.26856643e+00
2.05358702e+00
1.91321200e+00
1.89594180e+00
2.11202472e+00
2.02324932e+00
2.10766351e+00
2.03049371e+00
1.91783019e+00
2.06331564e+00
1.96702971e+00
1.89934607e+00
1.90938971e+00
1.90938971e+00
1.95680105e+00
2.04514270e+00
1.96094251e+00
2.05995027e+00
2.09429538e+00
1.99094495e+00
1.96083092e+00
2.31987215e+00
1.97135186e+00
2.35179265e+00
2.02754479e+00
2.24955204e+00
2.27199001e+00
2.02962875e+00
2.44572163e+00
2.12725891e+00
1.89438182e+00
2.22433636e+00
2.03372096e+00
2.03372096e+00
1.90594377e+00
2.22879667e+00
2.12129397e+00
2.18337707e+00
2.18337707e+00
1.94735465e+00
1.94817176e+00
2.04646113e+00
2.26416232e+00
2.57002944e+00
1.93149365e+00
2.10206295e+00
2.10206295e+00
2.37596414e+00
1.91465714e+00
1.97069129e+00
1.91465714e+00
1.94138940e+00
2.02827824e+00
2.12298505e+00
1.91598737e+00
1.91598737e+00
2.01035847e+00
2.08778539e+00
1.99366594e+00
2.00760244e+00
2.04404293e+00
1.89244602e+00
2.17324156e+00
1.95939668e+00
2.14138263e+00
2.04241381e+00
2.03790400e+00
1.96048971e+00
1.96048971e+00
1.93177865e+00
1.93177865e+00
2.85207919e+00
1.97210636e+00
2.95307174e+00
1.94803747e+00
1.90277015e+00
2.47904599e+00
1.90496005e+00
2.62920592e+00
1.90878536e+00
2.47643358e+00
2.09606020e+00
1.95229183e+00
2.08747970e+00
1.96171474e+00
2.24810820e+00
2.15858452e+00
1.96171474e+00
2.38211722e+00
2.02795221e+00
1.97961102e+00
2.66188387e+00
2.49238902e+00
1.91184873e+00
2.51457358e+00
2.41284869e+00
2.43938614e+00
2.42648473e+00
2.09150822e+00
2.26755693e+00
2.09150822e+00
2.02584964e+00
2.21584931e+00
1.97547769e+00
1.97547769e+00
1.90886087e+00
1.89581580e+00
1.89888734e+00
2.45665348e+00
2.05962953e+00
2.60528530e+00
2.39443155e+00
2.09343623e+00
2.48940412e+00
1.92461246e+00
1.89091907e+00
1.89091907e+00
1.93957993e+00
1.97070076e+00
1.93937797e+00
2.20271084e+00
1.90844962e+00
2.35939883e+00
2.17386124e+00
2.01281203e+00
2.11206549e+00
1.91413096e+00
2.34984650e+00
1.89412176e+00
1.91058137e+00
1.94728993e+00
1.93925006e+00
1.96080557e+00
1.89788685e+00
2.11850771e+00
2.11850771e+00
1.99695195e+00
1.93751860e+00
2.12608575e+00
2.20555324e+00
1.97321104e+00
2.70504109e+00
1.95719994e+00
1.90815393e+00
1.97936295e+00
1.97936295e+00
1.93214719e+00
2.64464586e+01
9.18424409e+00
1.98425094e+00
1.97104859e+00
2.07219328e+00
2.04942146e+00
2.15556517e+00
2.45774577e+00
1.95125520e+00
2.34203231e+00
2.19350334e+00
2.09101447e+00
2.10517966e+00
2.12254594e+00
2.23858889e+00
2.00515638e+00
2.00515638e+00
2.07221593e+00
2.16817022e+00
1.99749230e+00
1.99904834e+00
1.96365859e+00
1.91921007e+00
1.90948702e+00
1.90948702e+00
1.96429360e+00
2.01930686e+00
2.54755972e+00
2.41720730e+00
1.89412176e+00
1.92159365e+00
1.99236504e+00
2.60191993e+00
2.19463280e+00
1.92159365e+00
2.11841966e+00
1.93641913e+00
1.89954788e+00
1.93641913e+00
3.05324389e+00
1.89954788e+00
2.75792261e+00
2.26448698e+00
2.15999143e+00
1.95189542e+00
1.90448822e+00
2.07307420e+00
1.96379078e+00
2.27801309e+00
2.22877539e+00
2.22877539e+00
1.92129633e+00
2.08106112e+00
1.92129633e+00
2.09440142e+00
1.97276980e+00
1.98232840e+00
1.95269740e+00
2.40370419e+00
2.12261992e+00
2.07448732e+00
1.95269740e+00
2.06796744e+00
2.69231000e+00
2.36113741e+00
1.90952699e+00
1.94692062e+00
2.07448732e+00
1.97448629e+00
1.97448629e+00
1.91409179e+00
1.93286749e+00
1.91409179e+00
2.07818863e+00
2.47615626e+00
2.03877197e+00
1.94533330e+00
2.07482484e+00
2.10172873e+00
1.92125239e+00
1.92125239e+00
1.91550053e+00
1.96314737e+00
2.79785232e+00
2.11035429e+00
1.93320477e+00
1.97521137e+00
2.14584015e+00
2.06584842e+00
2.10876066e+00
2.10876066e+00
2.07834566e+00
1.89290016e+00
2.20249600e+00
1.93600183e+00
2.00711241e+00
1.89990828e+00
1.97671789e+00
1.97671789e+00
2.00748435e+00
2.20182632e+00
1.94454556e+00
3.27479285e+00
1.99794237e+00
2.07471145e+00
1.94454556e+00
1.97031624e+00
1.97582676e+00
1.96978562e+00
1.96978562e+00
2.09696845e+00
2.09696845e+00
1.96856685e+00
2.50060546e+00
1.98888009e+00
2.04844634e+00
1.89724855e+00
1.89724855e+00
2.20696565e+00
2.20696565e+00
2.30228505e+00
1.97548128e+00
2.06584842e+00
2.42969225e+00
2.86183013e+00
2.91789801e+00
1.92913573e+00
2.19735128e+00
2.73840473e+00
1.97509330e+00
2.18917122e+00
2.19038638e+00
2.27598514e+00
2.21356893e+00
1.94269462e+00
2.09251799e+00
2.73746843e+00
2.08003977e+00
2.00088087e+00
1.89881782e+00
1.96505361e+00
1.89881782e+00
2.04513685e+00
2.22277054e+00
2.22297653e+00
3.46056692e+00
1.93653524e+00
1.90268220e+00
1.93625841e+00
1.93625841e+00
1.94179371e+00
2.02313117e+00
2.02313117e+00
3.33735786e+00
1.99357307e+00
1.90350902e+00
1.89397079e+00
1.89397079e+00
1.88894464e+00
1.92543157e+00
1.89096138e+00
2.26844644e+00
1.94012981e+00
1.90059668e+00
2.63676161e+00
1.94428713e+00
1.94428713e+00
2.03711927e+00
2.03711927e+00
2.16995972e+00
1.96468003e+00
2.42584814e+00
1.91038355e+00
2.00200497e+00
2.00200497e+00
2.07818924e+00
2.11902805e+00
2.35847429e+00
2.05665442e+00
2.03985267e+00
2.03591351e+00
2.03149709e+00
1.90722468e+00
3.64407603e+00
2.07671915e+00
2.12197954e+00
2.08198160e+00
2.56757742e+00
2.26929929e+00
1.98581971e+00
2.27795895e+00
2.47444648e+00
2.47444648e+00
2.58667239e+00
2.59829846e+00
2.36986365e+00
1.97957156e+00
1.97957156e+00
1.90833229e+00
2.12469712e+00
2.92672514e+00
1.97894032e+00
2.67551710e+00
2.00917412e+00
2.00917412e+00
1.99019138e+00
3.13274032e+00
2.58239173e+00
2.08106758e+00
2.08106758e+00
2.09621902e+00
1.97665952e+00
2.09621902e+00
1.95818194e+00
1.94832174e+00
2.53516198e+00
2.24425155e+00
1.95655147e+00
2.05332487e+00
2.45458080e+00
2.10836803e+00
2.23319412e+00
2.33062959e+00
2.41532288e+00
2.06409782e+00
3.82059123e+00
1.99922057e+00
2.21164058e+00
2.45543313e+00
2.02057180e+00
3.21880198e+00
2.03104341e+00
2.03104341e+00
2.03022065e+00
2.85947884e+00
2.26739889e+00
2.07669500e+00
2.14674904e+00
1.94675497e+00
1.91076671e+00
1.89535928e+00
2.02359150e+00
2.02359150e+00
2.00181871e+00
1.95011648e+00
2.04670400e+00
1.89562426e+00
1.89562426e+00
2.05572795e+00
2.32903248e+00
2.09433149e+00
1.92009262e+00
2.14583326e+00
1.89675730e+00
1.91900051e+00
2.02567096e+00
2.07293560e+00
1.92717984e+00
1.92717984e+00
2.27047774e+00
1.96224450e+00
2.94594673e+00
2.32516506e+00
2.16542752e+00
2.17252921e+00
1.91321200e+00
2.62423331e+00
1.92596395e+00
2.43800751e+00
2.37948557e+00
1.99135983e+00
2.10136430e+00
1.90438406e+00
2.50007093e+00
2.02324932e+00
1.97104388e+00
2.28967732e+00
1.93986608e+00
1.94719590e+00
1.96511241e+00
1.96511241e+00
2.01135140e+00
1.94695588e+00
1.89436699e+00
2.33990574e+00
1.99630253e+00
2.03049371e+00
2.04053828e+00
2.08385149e+00
1.98385309e+00
1.89372477e+00
1.91783019e+00
1.97099476e+00
1.89372477e+00
2.16509405e+00
1.98067565e+00
1.92040881e+00
2.06727479e+00
2.06727479e+00
2.01361475e+00
2.00889839e+00
1.95129154e+00
1.91943430e+00
1.99123770e+00
3.28109622e+00
2.13815495e+00
2.03091663e+00
2.32791958e+00
1.95680105e+00
2.10495027e+00
2.01882804e+00
1.91975873e+00
1.94904084e+00
1.91120875e+00
1.89808793e+00
1.95192245e+00
1.95192245e+00
2.00281934e+00
2.08815914e+00
2.18800147e+00
2.33743496e+00
2.06831272e+00
2.16002174e+00
2.24909816e+00
1.91120875e+00
1.94904084e+00
1.97103267e+00
2.32664353e+00
2.19624434e+00
2.08118368e+00
1.94620573e+00
2.57569971e+00
2.01741386e+00
2.14888031e+00
2.11960318e+00
1.96760248e+00
2.02962875e+00
2.15899945e+00
1.99700298e+00
2.10096535e+00
1.99505218e+00
2.03222176e+00
2.04126324e+00
2.14404264e+00
1.89304585e+00
1.93773828e+00
2.45334258e+00
1.93460158e+00
1.89438182e+00
2.05570561e+00
1.93800770e+00
2.11110778e+00
2.23147285e+00
2.00994024e+00
1.90594377e+00
2.13789579e+00
2.45719634e+00
1.99902039e+00
2.15714340e+00
1.95504950e+00
1.90541459e+00
2.56441341e+00
2.42123250e+00
1.93085780e+00
2.00157371e+00
2.12942591e+00
3.39766412e+00
2.04197838e+00
2.04197838e+00
2.34670025e+00
2.12719684e+00
1.95919463e+00
2.13512846e+00
1.90541459e+00
2.55910608e+00
2.14601929e+00
1.90059668e+00
2.01103792e+00
2.08220142e+00
1.88990663e+00
1.88990663e+00
2.09757084e+00
1.92570096e+00
2.10507093e+00
2.28243637e+00
1.96798987e+00
2.03992216e+00
1.92577950e+00
1.92577950e+00
2.06092254e+00
1.94138940e+00
2.03992216e+00
2.44511021e+00
2.40917761e+00
2.08043119e+00
2.09606020e+00
1.96100252e+00
1.96100252e+00
1.93149365e+00
2.17576932e+00
2.03764403e+00
1.94750080e+00
1.97932309e+00
1.94750080e+00
2.23932495e+00
2.16426204e+00
2.16426204e+00
2.25618096e+00
2.22239063e+00
1.93058194e+00
1.93058194e+00
2.08113210e+00
2.12740219e+00
2.14020731e+00
2.23624335e+00
2.20406562e+00
2.07005477e+00
2.20406562e+00
2.31419018e+00
2.21684666e+00
2.04241381e+00
1.93024161e+00
1.98528346e+00
2.50921546e+00
2.10544206e+00
2.05303481e+00
2.02256068e+00
2.07435634e+00
1.93024161e+00
2.10544206e+00
2.28056926e+00
1.91159683e+00
2.06024745e+00
1.91159683e+00
2.32204673e+00
2.00580799e+00
1.93364530e+00
1.89796269e+00
2.22346406e+00
1.90145087e+00
1.97961102e+00
1.93439897e+00
1.89049215e+00
2.11639458e+00
2.01486699e+00
2.20875261e+00
2.14576611e+00
2.02400231e+00
2.51878632e+00
1.98709251e+00
2.10472357e+00
2.12576406e+00
2.03680222e+00
1.92450951e+00
2.05958228e+00
1.99211615e+00
2.26013740e+00
2.01557203e+00
1.91563867e+00
1.96232448e+00
1.89557574e+00
2.17804306e+00
1.98198740e+00
1.94368194e+00
1.98198740e+00
1.89673412e+00
1.96232448e+00
2.19727325e+00
1.89557574e+00
2.05022300e+00
1.90505163e+00
2.40369530e+00
1.91223425e+00
2.16925865e+00
1.93409845e+00
2.07830220e+00
2.06480965e+00
1.97535793e+00
2.10653462e+00
2.10653462e+00
2.21140931e+00
2.16844802e+00
2.03519708e+00
2.03519708e+00
2.46134143e+00
2.46134143e+00
2.36358340e+00
1.92039789e+00
3.08300480e+00
1.91382650e+00
2.10640334e+00
2.22146728e+00
1.89372520e+00
1.89372520e+00
1.92721402e+00
1.92721402e+00
2.48634696e+00
2.03032580e+00
1.89579962e+00
2.04705115e+00
2.01284398e+00
1.89579962e+00
1.97229743e+00
1.89625181e+00
2.04353919e+00
2.43851092e+00
2.06347402e+00
2.77503922e+00
2.30994361e+00
1.91079744e+00
1.95772699e+00
1.89581580e+00
2.30172401e+00
2.03689181e+00
2.06250007e+00
2.02336634e+00
1.97362309e+00
1.97283749e+00
1.94359210e+00
2.22544312e+00
1.88932044e+00
2.11722224e+00
2.00889839e+00
2.37344251e+00
1.97557613e+00
1.95129154e+00
2.23916176e+00
2.17053396e+00
1.91257303e+00
2.05791784e+00
2.04166561e+00
2.15928968e+00
2.07054553e+00
2.07054553e+00
2.13031116e+00
3.08061767e+00
1.95048681e+00
2.25361303e+00
2.07095427e+00
1.89206426e+00
1.89206426e+00
1.96829689e+00
1.99461831e+00
1.93319272e+00
2.11930052e+00
1.93319272e+00
2.11930052e+00
1.93957993e+00
1.98745453e+00
2.16642862e+00
1.97476717e+00
1.90283258e+00
1.98128021e+00
2.15942143e+00
2.14289240e+00
2.21052975e+00
2.00620536e+00
2.35218925e+00
2.10721606e+00
2.10721606e+00
2.02420247e+00
2.30826383e+00
1.93166512e+00
2.38117653e+00
1.93512336e+00
1.96612370e+00
2.01409535e+00
2.05234715e+00
1.90038592e+00
2.18469069e+00
1.99607059e+00
2.00651095e+00
2.18679212e+00
1.99607059e+00
1.97105901e+00
1.89888999e+00
1.93144601e+00
2.03726119e+00
2.29474573e+00
1.94565235e+00
1.90140863e+00
1.89505926e+00
1.93276534e+00
1.89049773e+00
2.15957007e+00
2.04250964e+00
2.07767195e+00
1.92519271e+00
1.92519271e+00
2.16985454e+00
1.91508995e+00
1.98047944e+00
1.95957165e+00
1.90886087e+00
2.11206549e+00
1.91508995e+00
2.81293916e+00
1.98047944e+00
1.98691717e+00
2.00393170e+00
1.90140863e+00
1.92004581e+00
2.32982016e+00
2.16814737e+00
1.91413096e+00
2.00418351e+00
1.94139634e+00
2.45306831e+00
2.39423405e+00
2.22258344e+00
2.24815173e+00
1.96070458e+00
2.31001034e+00
1.98483539e+00
1.92403279e+00
2.04472036e+00
2.01005932e+00
2.07676047e+00
2.19997017e+00
2.08950572e+00
4.05020992e+00
2.19463280e+00
2.77120654e+00
2.02955081e+00
2.40510734e+00
2.74174285e+00
2.63788385e+00
1.93393909e+00
1.93393909e+00
2.13194795e+00
2.08210863e+00
2.04333610e+00
1.99145412e+00
2.02044579e+00
1.94975485e+00
1.94975485e+00
1.90691679e+00
2.09882866e+00
2.04213281e+00
1.92885586e+00
2.12139767e+00
1.93195946e+00
2.00691703e+00
2.20178788e+00
1.89788685e+00
2.14065311e+00
2.00760450e+00
2.07290090e+00
1.96080557e+00
1.93839252e+00
2.40495540e+00
1.93839252e+00
2.00146439e+00
2.00309075e+00
2.05688913e+00
2.01005932e+00
2.05002975e+00
1.92882835e+00
1.91856676e+00
2.25405842e+00
2.11772902e+00
2.13428387e+00
2.08232653e+00
1.93782972e+00
1.92258574e+00
1.96084935e+00
2.02586732e+00
1.93680872e+00
2.53054674e+00
2.28296296e+00
2.28296296e+00
2.81347113e+00
2.81347113e+00
1.93411344e+00
1.93411344e+00
2.14298019e+00
5.08233493e+00
2.03741139e+00
2.12608575e+00
2.10902717e+00
2.10915171e+00
2.15877808e+00
2.10915171e+00
1.90395057e+00
1.90395057e+00
2.32249183e+00
4.02676671e+00
2.44824701e+00
2.63260257e+00
2.57625381e+00
2.12050671e+00
3.67297112e+00
2.48532597e+00
1.95497135e+00
3.21583940e+00
2.06673571e+00
2.17607813e+00
2.51894359e+00
2.57833979e+00
2.33647891e+00
2.37862978e+00
2.72037383e+00
2.84970268e+00
1.96113527e+00
2.04942146e+00
1.89038151e+00
1.95473536e+00
2.17286992e+00
2.32913949e+00
2.32913949e+00
2.03230862e+00
1.98866173e+00
1.95125520e+00
2.25817645e+00
1.97276980e+00
2.49210428e+00
1.90663485e+00
2.25243315e+00
2.22824501e+00
2.44339879e+00
2.02277664e+00
2.18907015e+00
1.92955976e+00
1.92955976e+00
2.47739353e+00
1.98366590e+00
1.98366590e+00
2.05553655e+00
2.03744322e+00
1.93290303e+00
2.01816861e+00
2.20061175e+00
2.09374776e+00
2.39056323e+00
2.66128368e+00
2.60023878e+00
2.76984224e+00
1.96098742e+00
1.96098742e+00
2.47830330e+00
1.99022080e+00
1.99568188e+00
1.94849939e+00
2.33345596e+00
2.00135910e+00
2.00135910e+00
2.15322333e+00
2.13975713e+00
2.52296097e+00
2.29099468e+00
2.49366284e+00
1.98950354e+00
2.03031967e+00
2.11664930e+00
1.91574196e+00
1.92002367e+00
1.94026220e+00
1.91711942e+00
2.15752143e+00
2.12130542e+00
2.34672555e+00
1.97476717e+00
1.93842264e+00
1.94548026e+00
2.35131334e+00
2.31000611e+00
2.27403268e+00
2.02933482e+00
2.09061503e+00
2.09882531e+00
2.02933482e+00
2.19660288e+00
2.13807940e+00
2.23421808e+00
2.04900424e+00
2.07814650e+00
2.14168510e+00
2.29156072e+00
2.18650800e+00
2.03550540e+00
1.96359149e+00
2.34337425e+00
2.09364241e+00
1.93433550e+00
2.05112081e+00
1.98146524e+00
1.90448822e+00
2.09310829e+00
2.09310829e+00
2.08998678e+00
2.89970971e+00
1.91979055e+00
1.91979055e+00
2.18502685e+00
2.01023509e+00
2.27509683e+00
2.05566818e+00
2.04753165e+00
2.04753165e+00
2.07534548e+00
2.08424781e+00
2.08424781e+00
1.89877970e+00
1.89877970e+00
1.94999602e+00
2.78319774e+00
2.08106112e+00
1.93275500e+00
2.10505865e+00
2.06355107e+00
1.97696466e+00
1.97696466e+00
2.33475351e+00
2.08115217e+00
2.07534548e+00
1.94999602e+00
2.69950248e+00
2.00225681e+00
1.89312437e+00
1.89312437e+00
1.90395443e+00
1.91728540e+00
1.89009276e+00
1.98232840e+00
1.92827717e+00
1.92827717e+00
2.02830894e+00
1.89009276e+00
2.03392462e+00
1.99399778e+00
1.99399778e+00
1.93165047e+00
2.01003982e+00
1.93165047e+00
3.24129502e+00
1.95302588e+00
1.92637025e+00
1.92637025e+00
2.81995464e+00
1.89654944e+00
2.43471661e+00
2.04426525e+00
2.49327385e+00
2.34866328e+00
1.95323897e+00
2.10710502e+00
2.58850238e+00
2.66107231e+00
2.05941051e+00
2.05941051e+00
1.91550053e+00
2.18426908e+00
2.18426908e+00
2.23769730e+00
2.06693505e+00
1.94196827e+00
2.03300534e+00
2.12243454e+00
2.09683568e+00
2.62896068e+00
1.91917685e+00
1.91917685e+00
2.09082785e+00
2.09082785e+00
2.04318694e+00
2.05628689e+00
2.05628689e+00
1.96291047e+00
2.38180890e+00
1.89290016e+00
2.11765004e+00
2.06669247e+00
2.59375806e+00
1.99993267e+00
2.66102201e+00
2.16480247e+00
1.89050059e+00
1.89050059e+00
2.00748435e+00
2.16480247e+00
1.93320477e+00
1.94588309e+00
2.21535809e+00
1.93099248e+00
1.93099248e+00
2.65231951e+00
2.14812930e+00
1.96856685e+00
2.70131718e+00
2.16053793e+00
2.29427582e+00
1.89909917e+00
2.42486438e+00
2.41663013e+00
2.87717706e+00
1.99194281e+00
2.46039125e+00
2.20401418e+00
2.20401418e+00
2.46039125e+00
2.20182632e+00
2.57860719e+00
2.13515988e+00
3.50253298e+00
1.92989940e+00
2.26155097e+00
1.94086812e+00
1.92989940e+00
2.01128758e+00
2.07471145e+00
2.48808749e+00
2.48808749e+00
1.91282882e+00
1.96928898e+00
1.96928898e+00
3.02661578e+00
2.21056453e+00
2.22091055e+00
2.23779196e+00
2.01478623e+00
1.95154098e+00
1.95154098e+00
2.08999071e+00
2.15291449e+00
2.16061824e+00
1.93068420e+00
2.28793031e+00
2.41458161e+00
2.40427082e+00
2.13604093e+00
2.13604093e+00
1.94451099e+00
1.94451099e+00
2.03506478e+00
1.96544448e+00
2.13683337e+00
2.21483434e+00
1.97548128e+00
1.96544448e+00
2.65528723e+00
2.18082607e+00
2.21483434e+00
2.11545201e+00
2.11545201e+00
1.93348760e+00
2.67242624e+00
2.54341809e+00
2.44196229e+00
2.24036109e+00
2.15652757e+00
1.99139403e+00
1.98855430e+00
1.96314014e+00
2.09537530e+00
1.94996014e+00
1.95579326e+00
2.05315209e+00
1.93918245e+00
2.06935276e+00
1.93918245e+00
2.33401604e+00
2.39291674e+00
1.90065049e+00
1.90065049e+00
1.95405009e+00
1.95405009e+00
2.04290037e+00
1.94269462e+00
1.89905691e+00
2.25891828e+00
1.89905691e+00
1.98834858e+00
2.11549561e+00
1.90245322e+00
1.95359490e+00
1.90505163e+00
2.09708825e+00
2.20415481e+00
2.52393168e+00
1.99646034e+00
2.04951816e+00
2.09251799e+00
1.93675005e+00
2.05726275e+00
2.01919373e+00
1.93675005e+00
2.04629975e+00
2.34958143e+00
1.89797414e+00
1.98168823e+00
1.92267863e+00
2.11810858e+00
2.04513685e+00
2.13091976e+00
2.20259508e+00
2.19064322e+00
1.96579596e+00
1.92318510e+00
2.00409780e+00
1.90294743e+00
1.94386463e+00
2.17352379e+00
1.96579596e+00
2.18263362e+00
2.17681001e+00
2.53430224e+00
2.53430224e+00
1.91069639e+00
1.88943948e+00
1.90294743e+00
1.91034985e+00
2.61072735e+00
1.96645986e+00
2.69369495e+00
2.24050420e+00
5.21593762e+00
5.24748867e+00
2.30436318e+00
2.36092729e+00
1.96680903e+00
1.89382203e+00