# vtk DataFile Version 2.0
z-phase-transition mesh
ASCII
DATASET UNSTRUCTURED_GRID

POINTS 7600 float
3.33014309e-01 9.65971906e-01 0.0
7.83607985e-01 5.50063659e-01 0.0
2.07868954e-01 1.59469936e-01 0.0
1.27459536e-01 8.52810079e-01 0.0
6.26414109e-01 7.05377980e-01 0.0
1.41999238e-02 9.87092273e-01 0.0
8.68064765e-01 1.29418960e-01 0.0
2.76959773e-01 5.99987243e-02 0.0
2.58798647e-01 5.18500810e-01 0.0
4.59308638e-01 3.95822717e-01 0.0
4.88538124e-01 1.05803675e-01 0.0
1.51009641e-01 3.68460253e-01 0.0
4.74098694e-01 8.90739923e-01 0.0
2.07679011e-01 5.83515130e-01 0.0
6.31157541e-01 1.75676826e-02 0.0
5.14047318e-01 1.88773061e-01 0.0
1.00000000e-03 9.99000000e-01 0.0
9.54877719e-01 8.87708387e-01 0.0
2.72747115e-01 1.15512842e-01 0.0
6.98125253e-01 4.37163401e-01 0.0
9.33272878e-02 5.21219985e-01 0.0
1.00000000e-03 8.29063219e-01 0.0
3.41253003e-01 7.10776584e-01 0.0
3.16083592e-01 6.30565568e-01 0.0
5.28941569e-01 2.72628007e-01 0.0
9.81235587e-01 7.07131165e-01 0.0
9.99000000e-01 9.60570148e-01 0.0
5.89869118e-01 9.70128751e-01 0.0
6.17030578e-02 2.51004544e-01 0.0
1.00000000e-03 2.57657111e-01 0.0
4.53660201e-01 2.54782085e-01 0.0
8.42509854e-01 2.67381683e-01 0.0
4.03557519e-01 6.21698700e-01 0.0
1.27606911e-01 7.75341680e-01 0.0
1.42874384e-01 9.99000000e-01 0.0
8.35535554e-01 3.42834809e-01 0.0
1.00000000e-03 7.61087559e-01 0.0
6.27960141e-01 7.58322059e-01 0.0
7.82923261e-01 6.39612940e-02 0.0
4.12167498e-01 1.97645422e-01 0.0
7.61861661e-01 5.83683530e-01 0.0
3.85322113e-01 3.25195769e-02 0.0
2.58013990e-01 3.92772669e-01 0.0
6.44035962e-01 6.17544871e-01 0.0
9.09021303e-01 4.34136684e-01 0.0
1.71563843e-01 6.75494556e-01 0.0
8.54259937e-01 5.52932772e-01 0.0
8.15512141e-01 5.43301163e-01 0.0
4.81089765e-01 2.91273256e-01 0.0
4.93585966e-02 1.12688425e-01 0.0
6.83133664e-02 6.21378225e-01 0.0
2.85793135e-01 6.41851390e-01 0.0
8.09862209e-01 2.97996609e-01 0.0
3.72252793e-01 7.33269132e-01 0.0
2.07755469e-01 2.36646395e-02 0.0
3.27657445e-01 2.53503309e-01 0.0
9.60887391e-01 8.14980728e-01 0.0
5.67944336e-01 9.05756711e-01 0.0
9.46765753e-01 1.61307461e-01 0.0
8.67609022e-01 5.02108806e-01 0.0
7.74963009e-01 7.13915368e-01 0.0
3.44881307e-01 5.39417431e-02 0.0
1.21079361e-01 4.77088885e-01 0.0
7.46212912e-01 8.38256770e-01 0.0
1.04264101e-01 4.17232844e-01 0.0
3.15708982e-01 2.39978759e-01 0.0
1.96144450e-01 2.33143086e-01 0.0
9.69963676e-01 3.61757607e-01 0.0
3.82146342e-01 7.56006883e-01 0.0
4.21800483e-01 9.51092236e-01 0.0
9.99000000e-01 3.27196599e-01 0.0
5.04091331e-01 2.70920747e-01 0.0
2.20284396e-01 3.43942622e-02 0.0
6.47373090e-01 4.81166900e-01 0.0
1.00000000e-03 3.62837326e-01 0.0
9.20888950e-01 2.14370306e-01 0.0
2.01775233e-01 5.90626586e-01 0.0
7.99717793e-01 2.70872668e-01 0.0
5.77464221e-01 7.94740198e-01 0.0
2.46126693e-01 7.70402664e-01 0.0
3.34653451e-01 5.07999081e-01 0.0
6.03643630e-01 5.62772775e-01 0.0
1.57670411e-01 7.57540687e-01 0.0
3.88934992e-01 1.43526212e-01 0.0
6.48270324e-02 5.57056779e-01 0.0
6.89653062e-01 7.57721315e-02 0.0
4.30669363e-01 1.81377751e-01 0.0
6.57446763e-01 3.33733643e-01 0.0
6.33657144e-01 5.22117036e-01 0.0
9.99000000e-01 1.31063452e-01 0.0
3.21281182e-01 6.75486157e-02 0.0
9.20167752e-01 7.83990552e-01 0.0
2.52882466e-01 7.59315851e-01 0.0
7.76671073e-01 5.39226535e-01 0.0
4.16764226e-01 2.66674759e-01 0.0
1.10653566e-01 9.01442997e-01 0.0
8.86029584e-01 6.13674271e-01 0.0
3.72335498e-01 3.47297327e-01 0.0
7.46856966e-01 9.11376352e-01 0.0
9.61636181e-01 8.24800345e-01 0.0
6.54829807e-01 1.84901264e-01 0.0
1.89517405e-01 9.85150492e-01 0.0
6.46705297e-01 1.00000000e-03 0.0
1.88059358e-01 6.72471959e-01 0.0
1.61390586e-03 1.79478108e-01 0.0
5.25840976e-01 7.06960655e-01 0.0
6.12684826e-01 3.08829020e-01 0.0
7.04641603e-01 2.11861123e-01 0.0
2.64022344e-01 7.64327156e-01 0.0
6.62049180e-01 8.74998964e-01 0.0
5.89445260e-01 4.62055471e-01 0.0
1.35188518e-01 4.66235476e-01 0.0
1.97094344e-01 3.49463724e-01 0.0
9.91850671e-01 3.92629036e-01 0.0
8.65665534e-01 5.39263093e-01 0.0
8.60356196e-01 4.51168461e-01 0.0
5.25156523e-01 5.58341148e-01 0.0
7.02896783e-02 6.21347356e-01 0.0
2.79568988e-01 4.37780919e-02 0.0
6.77638908e-01 1.57083567e-01 0.0
9.99000000e-01 9.38805805e-01 0.0
8.99549602e-01 3.17271288e-01 0.0
2.36789760e-02 9.69126909e-01 0.0
5.08052647e-01 8.67827079e-01 0.0
9.47295919e-01 8.82652358e-01 0.0
3.33405571e-01 3.85532292e-01 0.0
8.87131502e-01 2.63239794e-01 0.0
2.72874133e-01 6.22671287e-01 0.0
8.46906418e-01 6.24686799e-01 0.0
5.00588261e-01 1.42166051e-01 0.0
5.29753696e-01 9.68087334e-01 0.0
1.70257844e-01 5.13938933e-01 0.0
8.94552645e-01 6.70042783e-01 0.0
7.36489812e-01 6.61791822e-01 0.0
3.37949643e-01 3.09367536e-01 0.0
8.16201346e-01 8.11704690e-01 0.0
8.17261309e-01 8.93362688e-01 0.0
5.11487300e-01 4.10266714e-01 0.0
7.67601853e-01 6.75690064e-01 0.0
6.17197183e-01 8.72542524e-01 0.0
9.74255885e-01 2.55367938e-01 0.0
4.65673530e-01 8.44539779e-02 0.0
6.06052440e-01 2.98489823e-03 0.0
5.26850551e-01 5.69592716e-01 0.0
2.32514678e-01 5.13511367e-01 0.0
1.00000000e-03 4.98198581e-02 0.0
8.60589316e-01 4.03388215e-01 0.0
1.19231379e-01 4.45465880e-01 0.0
7.24731603e-01 2.92289982e-01 0.0
5.90730903e-01 9.48645469e-02 0.0
1.00000000e-03 5.53690019e-01 0.0
5.10263532e-01 7.06888939e-01 0.0
7.77424018e-01 9.42957420e-01 0.0
5.07895022e-01 2.86384830e-01 0.0
7.00993717e-01 2.13933042e-01 0.0
4.52124968e-01 1.00040347e-01 0.0
3.52082662e-02 9.42625645e-01 0.0
8.97897691e-01 7.00190797e-01 0.0
4.55620319e-01 5.55879889e-02 0.0
1.00000000e-03 2.69074850e-01 0.0
4.54680330e-01 7.00497794e-01 0.0
6.40150453e-01 3.85272560e-01 0.0
9.81408739e-01 7.48903192e-01 0.0
6.09896131e-01 6.36173958e-01 0.0
3.89228975e-01 3.18833295e-01 0.0
2.82330528e-01 7.79296541e-01 0.0
1.00000000e-03 1.29606195e-01 0.0
5.88092838e-02 1.51977043e-01 0.0
7.51610140e-01 6.63783456e-01 0.0
5.28766392e-01 1.20085552e-01 0.0
5.03580777e-01 4.10023353e-01 0.0
1.33995626e-01 5.16471597e-01 0.0
3.95086625e-01 6.40758674e-01 0.0
6.27449843e-01 1.00000000e-03 0.0
4.36579545e-01 6.59254023e-01 0.0
6.56136517e-01 7.89096655e-01 0.0
7.13278928e-01 7.59013948e-02 0.0
8.10101426e-02 7.07219492e-01 0.0
1.00000000e-03 5.72176422e-01 0.0
9.02856084e-01 5.28892840e-01 0.0
4.13732337e-01 7.17656046e-01 0.0
4.49408619e-01 5.59252708e-01 0.0
9.49050248e-01 3.86222317e-01 0.0
8.88902638e-01 9.78906159e-01 0.0
2.15380069e-01 9.55653279e-02 0.0
4.72586529e-02 1.00000000e-03 0.0
8.27548331e-02 5.81203458e-01 0.0
1.00000000e-03 2.79110467e-01 0.0
8.79549381e-01 1.00000000e-03 0.0
7.46861366e-01 2.27792872e-01 0.0
8.79486604e-02 6.73255361e-01 0.0
7.72645157e-01 9.47455814e-01 0.0
8.03074253e-01 8.81027010e-01 0.0
2.15753600e-01 9.63243835e-02 0.0
6.77163704e-01 8.95391523e-01 0.0
9.54193923e-01 3.29578659e-01 0.0
3.43417515e-01 7.60579284e-01 0.0
3.58615235e-01 9.47410239e-01 0.0
8.03455337e-01 4.74493650e-01 0.0
7.08454685e-01 7.44172499e-01 0.0
1.48697659e-01 8.59962140e-01 0.0
4.67470657e-01 8.65720095e-01 0.0
2.63131098e-01 8.69988731e-01 0.0
4.26080295e-01 1.47145620e-01 0.0
9.45556146e-01 1.22650682e-01 0.0
3.54537216e-01 8.78845899e-01 0.0
9.58278056e-01 5.71462607e-01 0.0
6.53177311e-01 4.56176905e-01 0.0
3.18407345e-01 3.07995826e-01 0.0
6.76407698e-01 6.70896786e-01 0.0
7.70350247e-01 8.81912770e-01 0.0
1.12361975e-01 4.93032001e-01 0.0
1.83384018e-01 4.59224937e-01 0.0
3.67907898e-01 9.99000000e-01 0.0
3.53964944e-01 1.00969396e-01 0.0
6.34134205e-02 7.91219406e-01 0.0
6.54347995e-01 2.84928859e-02 0.0
7.47982279e-02 6.78704563e-01 0.0
8.97494497e-02 7.47587488e-01 0.0
7.89320482e-01 1.42122131e-01 0.0
6.07376679e-02 9.72278202e-01 0.0
3.65217929e-01 3.18994200e-01 0.0
7.83373938e-01 9.29313647e-01 0.0
9.99000000e-01 8.16195036e-01 0.0
4.38282541e-01 1.08048691e-01 0.0
7.03001969e-01 5.55650932e-01 0.0
4.88622865e-01 8.22856928e-01 0.0
1.53438655e-01 6.46751637e-01 0.0
8.18149673e-02 5.62494510e-01 0.0
7.07920645e-02 1.83049124e-01 0.0
6.98900686e-02 7.02023203e-01 0.0
7.89469564e-01 6.02607044e-01 0.0
9.99000000e-01 3.39117239e-01 0.0
2.73299096e-01 8.74933915e-01 0.0
1.55271659e-01 9.78281566e-01 0.0
1.00000000e-03 9.99000000e-01 0.0
4.62547311e-02 8.56577068e-01 0.0
4.72332728e-01 9.77398315e-01 0.0
1.19468941e-01 5.90201815e-01 0.0
9.22483589e-01 4.66955313e-01 0.0
6.72989923e-01 6.47814280e-01 0.0
4.58516631e-01 6.35770341e-01 0.0
6.05022511e-01 9.58112165e-01 0.0
1.00000000e-03 1.54140151e-01 0.0
9.12756126e-01 9.99000000e-01 0.0
5.89846645e-01 7.41648081e-01 0.0
2.64575090e-01 6.98613960e-02 0.0
3.08216162e-01 3.12605136e-01 0.0
5.70512101e-01 1.64043122e-01 0.0
9.99000000e-01 9.99000000e-01 0.0
6.39112311e-01 4.72339786e-01 0.0
3.26391331e-01 8.60050778e-01 0.0
7.10736107e-01 9.39618275e-02 0.0
9.54104980e-01 8.50800362e-01 0.0
8.78751328e-01 6.73672582e-01 0.0
6.59103251e-01 4.02681300e-01 0.0
9.99000000e-01 8.99318437e-01 0.0
1.29262049e-02 2.56897388e-02 0.0
3.80669439e-01 7.62217919e-01 0.0
9.26717490e-01 1.96960576e-01 0.0
6.50222391e-01 4.20957323e-01 0.0
9.99000000e-01 8.06167275e-01 0.0
9.49432004e-01 4.08908739e-01 0.0
3.47618480e-01 1.56617576e-01 0.0
2.67928681e-02 8.31295756e-01 0.0
8.47801796e-01 9.99000000e-01 0.0
9.17472057e-01 5.29370699e-01 0.0
7.44337486e-01 8.26912936e-01 0.0
7.84552533e-01 1.96197512e-01 0.0
5.45678371e-01 1.41863935e-01 0.0
9.97992028e-01 5.06726354e-01 0.0
3.07889945e-01 7.58040800e-01 0.0
4.85519631e-01 3.11358452e-01 0.0
1.46456208e-01 7.14334310e-01 0.0
4.75283321e-01 7.52045686e-01 0.0
4.80521761e-01 8.59508756e-01 0.0
6.31350670e-01 5.09772217e-01 0.0
9.43067269e-01 3.51611719e-01 0.0
7.77673493e-02 8.31039753e-02 0.0
8.16316233e-01 6.76808449e-01 0.0
6.16764481e-01 1.82044019e-01 0.0
1.90984355e-01 1.73013497e-02 0.0
2.79338141e-01 6.20331307e-01 0.0
3.44809994e-01 5.56558188e-01 0.0
9.99000000e-01 3.88342900e-01 0.0
6.04304830e-01 7.87952516e-01 0.0
4.47336616e-01 7.20147064e-01 0.0
8.78654809e-01 9.32586602e-01 0.0
3.39561004e-02 9.21070949e-01 0.0
5.46758012e-01 3.20995883e-01 0.0
4.92605028e-01 9.44112390e-01 0.0
[...]
CELL_DATA 14396
SCALARS z float 1
LOOKUP_TABLE default
2.16512229e+00
2.16512229e+00
1.92025549e+00
2.41311497e+00
1.92025549e+00
2.22910998e+00
2.21301665e+00
2.46504604e+00
1.92563646e+00
1.92563646e+00
2.25119852e+00
1.95632024e+00
1.91999608e+00
2.67702714e+00
2.45288910e+00
2.06379829e+00
2.04645988e+00
2.25119852e+00
1.96600746e+00
2.13768509e+00
2.09166540e+00
2.19047603e+00
1.92740215e+00
2.07824081e+00
2.26985247e+00
2.21877532e+00
2.28380333e+00
2.28073661e+00
1.97297613e+00
2.17546666e+00
1.94119844e+00
1.88946464e+00
1.93975765e+00
1.97761967e+00
2.11264641e+00
1.89145578e+00
2.04646459e+00
2.21595969e+00
2.87062693e+00
1.97653690e+00
2.15944094e+00
2.15738547e+00
1.99861113e+00
1.99861113e+00
1.96600746e+00
2.41575844e+00
2.08904721e+00
1.90745842e+00
1.90745842e+00
1.91341032e+00
2.04113445e+00
2.02719749e+00
2.04195919e+00
2.03705438e+00
2.05803007e+00
2.13929427e+00
1.92238505e+00
2.11261869e+00
1.89591509e+00
2.14014885e+00
2.24489394e+00
2.48883350e+00
1.98040279e+00
2.26948232e+00
3.81130599e+00
2.09540977e+00
2.25148147e+00
1.92740215e+00
2.11879922e+00
3.07307591e+00
3.81130599e+00
2.44367408e+00
2.25057125e+00
2.09166540e+00
2.21432378e+00
2.20353069e+00
2.14932516e+00
2.67935902e+00
2.05821656e+00
1.90605640e+00
1.90605640e+00
2.07824081e+00
1.90400679e+00
2.72742209e+00
1.90400679e+00
2.34119523e+00
2.05408591e+00
1.90286073e+00
2.39578863e+00
2.45370681e+00
2.14116223e+00
1.99459166e+00
1.99932899e+00
2.15424137e+00
1.99164888e+00
1.95536726e+00
2.22749645e+00
1.95536726e+00
1.98111685e+00
2.44501309e+00
1.95840774e+00
2.21126936e+00
2.14296785e+00
2.08607379e+00
1.92187601e+00
2.47783334e+00
2.39644895e+00
1.97350888e+00
1.94979092e+00
1.90897571e+00
1.98351706e+00
1.98213696e+00
2.26596960e+00
1.96047684e+00
2.00711182e+00
2.06858648e+00
1.93905327e+00
1.89327762e+00
1.90628309e+00
2.81654142e+00
2.94335351e+00
1.93363877e+00
1.93363877e+00
1.91170347e+00
2.29624185e+00
1.94258749e+00
1.94258749e+00
2.44752781e+00
2.05071536e+00
1.89577367e+00
1.93916523e+00
2.09567782e+00
1.89855168e+00
1.89855168e+00
2.02135795e+00
2.04200816e+00
1.94170173e+00
1.93905327e+00
1.89327762e+00
1.90628309e+00
1.94170173e+00
2.08335297e+00
1.91147427e+00
2.13450704e+00
2.13450704e+00
1.97473705e+00
2.34117562e+00
2.36193640e+00
1.99220175e+00
1.90504573e+00
2.10035907e+00
2.10035907e+00
1.99641608e+00
1.98039366e+00
2.33431621e+00
2.06527395e+00
2.06527395e+00
2.05389118e+00
2.00126947e+00
1.91348505e+00
2.29969620e+00
2.00519121e+00
2.44432710e+00
1.95786207e+00
2.30800410e+00
2.26133770e+00
2.16475852e+00
2.08624841e+00
2.18913257e+00
1.90222339e+00
1.98154288e+00
1.93491121e+00
2.12965388e+00
1.92083514e+00
1.92083514e+00
1.98016899e+00
1.94692846e+00
1.94119844e+00
2.18005975e+00
1.95963896e+00
1.89583846e+00
2.05067383e+00
2.15833024e+00
1.91412018e+00
1.91412018e+00
2.72279397e+00
1.93975765e+00
1.91090072e+00
2.01588755e+00
2.13358060e+00
2.02496495e+00
2.19233660e+00
2.15424137e+00
2.03797319e+00
1.89551594e+00
1.93941646e+00
2.15780923e+00
2.18423760e+00
1.90703740e+00
2.22620061e+00
2.22038054e+00
2.01598606e+00
2.47011399e+00
2.50611054e+00
2.20823498e+00
2.40842230e+00
2.20823498e+00
2.48319970e+00
2.15240709e+00
2.09710435e+00
2.08812263e+00
2.13182425e+00
2.13182425e+00
2.48132707e+00
2.27394934e+00
2.01351832e+00
2.57937623e+00
2.13532565e+00
2.13532565e+00
2.06951889e+00
1.94940771e+00
1.94940771e+00
2.72997759e+00
1.89034298e+00
2.24250478e+00
1.99442930e+00
2.09970817e+00
2.18327661e+00
2.22608052e+00
2.47836540e+00
1.98933826e+00
1.90655716e+00
2.04646459e+00
1.95382047e+00
2.03783691e+00
2.19409112e+00
2.23180725e+00
1.97609099e+00
1.90443341e+00
1.97523981e+00
2.06109430e+00
1.97601184e+00
1.93515934e+00
1.93515934e+00
2.09300487e+00
1.91674347e+00
1.91674347e+00
2.14265411e+00
2.04174181e+00
2.49648009e+00
2.25944317e+00
2.13252438e+00
1.94864970e+00
1.98826747e+00
2.19701023e+00
2.25531011e+00
2.01597615e+00
2.18604174e+00
2.18604174e+00
2.03802249e+00
2.02168768e+00
1.90627041e+00
2.08394273e+00
2.19266103e+00
1.99951203e+00
2.07680983e+00
1.96739711e+00
2.27743255e+00
1.98018692e+00
1.91121654e+00
2.13292064e+00
2.54755351e+00
2.41355737e+00
1.93853014e+00
2.14133734e+00
1.97185482e+00
1.95260588e+00
1.91423094e+00
1.95829880e+00
2.39841757e+00
2.35291089e+00
2.05782433e+00
2.04791038e+00
2.04791038e+00
1.92661927e+00
3.40238421e+00
2.28533807e+00
2.24065014e+00
1.93763282e+00
1.96408786e+00
1.96408786e+00
2.10581960e+00
1.93395553e+00
2.06525315e+00
2.03853074e+00
2.01598314e+00
2.59193382e+00
2.02436719e+00
1.97543842e+00
2.13345991e+00
2.32616825e+00
2.15066040e+00
2.65610800e+00
2.18439877e+00
2.15055052e+00
1.91021909e+00
2.10513324e+00
1.93980510e+00
2.06804473e+00
2.08904721e+00
2.47684752e+00
2.10496824e+00
2.13768509e+00
1.95605772e+00
1.95605772e+00
1.88934677e+00
1.88934677e+00
1.96867472e+00
1.95407026e+00
1.98416870e+00
2.23214113e+00
2.02719749e+00
1.94816577e+00
1.94816577e+00
1.94966878e+00
2.00840207e+00
2.02006846e+00
2.02006846e+00
2.00840207e+00
1.93177158e+00
2.05803007e+00
1.93363057e+00
2.55481634e+00
2.41465570e+00
1.93177158e+00
2.13929427e+00
1.88953680e+00
2.19407402e+00
2.09470342e+00
2.05838684e+00
1.92700732e+00
2.16871364e+00
1.89591509e+00
1.93907308e+00
1.96835043e+00
1.97829026e+00
1.96835043e+00
2.48975203e+00
2.05510990e+00
2.57480684e+00
2.48975203e+00
2.15331182e+00
2.14869191e+00
2.15476249e+00
2.06392006e+00
2.06392006e+00
1.92970465e+00
2.16662700e+00
1.97982077e+00
1.97982077e+00
1.92970465e+00
1.99922322e+00
1.95927579e+00
2.44999187e+00
3.86968936e+00
2.03470705e+00
2.09540977e+00
2.26563237e+00
2.20353069e+00
1.95149388e+00
2.16278579e+00
1.96573529e+00
1.94025104e+00
1.94025104e+00
2.34677870e+00
2.08424959e+00
1.95877981e+00
2.08720573e+00
1.96427844e+00
1.97961195e+00
1.97961195e+00
1.90823171e+00
2.06356988e+00
1.90823171e+00
1.99122712e+00
1.89149391e+00
1.95263784e+00
1.95263784e+00
1.92896536e+00
1.92896536e+00
1.96323805e+00
1.93558729e+00
2.21314863e+00
2.28348925e+00
1.98393806e+00
2.29463544e+00
2.51771135e+00
2.41146672e+00
3.28294068e+00
2.07210718e+00
2.41146672e+00
1.99459166e+00
2.37259104e+00
2.20550336e+00
2.35466305e+00
1.93220147e+00
1.94117044e+00
2.05252033e+00
1.94117044e+00
2.36638783e+00
2.11830767e+00
2.06172429e+00
2.19261597e+00
2.30440207e+00
2.19261597e+00
2.09384174e+00
2.03579343e+00
2.31128458e+00
2.51503903e+00
2.58978298e+00
2.13347826e+00
1.95572425e+00
1.95356051e+00
1.95356051e+00
2.07456285e+00
2.12813183e+00
2.22749645e+00
1.99164888e+00
2.31299658e+00
2.12813183e+00
2.07222934e+00
2.34546920e+00
1.89691946e+00
1.89691946e+00
2.05362285e+00
2.21117020e+00
2.41815139e+00
2.06176396e+00
1.96681704e+00
2.02765922e+00
2.02765922e+00
1.94673492e+00
1.94673492e+00
1.90606276e+00
1.95840774e+00
2.51694192e+00
2.17782217e+00
1.90606276e+00
2.01545555e+00
1.98111685e+00
2.15927420e+00
2.19267224e+00
1.91031427e+00
1.89547267e+00
2.24876539e+00
1.90152986e+00
2.05362285e+00
2.28891738e+00
2.20687767e+00
2.19692196e+00
2.02850796e+00
2.22341813e+00
1.99554292e+00
1.99982303e+00
2.03147060e+00
2.05313619e+00
1.89118628e+00
1.89118628e+00
1.99193810e+00
1.88947407e+00
1.89406601e+00
1.94127442e+00
2.39399835e+00
1.97125617e+00
1.97125617e+00
1.95938286e+00
1.94977091e+00
1.95938286e+00
2.01397713e+00
1.96376718e+00
1.95939886e+00
1.95939886e+00
1.97890446e+00
2.23332065e+00
2.49893874e+00
2.00703046e+00
1.90163234e+00
1.90163234e+00
1.95059909e+00
2.05082815e+00
1.90228104e+00
1.98350210e+00
2.29922233e+00
2.20367370e+00
2.18680353e+00
2.00703046e+00
2.07176372e+00
2.04312218e+00
1.94634513e+00
2.04312218e+00
2.08879714e+00
1.89959930e+00
1.89959930e+00
2.46228265e+00
2.09628160e+00
2.09628160e+00
2.00098130e+00
2.35253939e+00
2.12949934e+00
2.12949934e+00
2.05651959e+00
2.05651959e+00
1.94933994e+00
2.24714055e+00
2.18408860e+00
2.18408860e+00
2.08244406e+00
2.33271306e+00
2.04615027e+00
2.78083132e+00
1.99900766e+00
1.93952853e+00
1.93952853e+00
2.01177671e+00
1.97866811e+00
1.97866811e+00
2.09461118e+00
2.14114454e+00
2.17799355e+00
2.12337100e+00
1.96755508e+00
1.96755508e+00
2.07019491e+00
2.51483955e+00
2.15289313e+00
2.07019491e+00
2.36885024e+00
2.68331006e+00
2.01895315e+00
1.99673721e+00
2.01120614e+00
2.20231952e+00
1.90145432e+00
2.15665445e+00
2.19744044e+00
1.97024492e+00
2.02741865e+00
1.99047636e+00
2.16301440e+00
2.36150234e+00
2.06858648e+00
2.07841038e+00
2.01143208e+00
2.02050413e+00
2.11955901e+00
2.11955901e+00
2.06397858e+00
2.06397858e+00
2.76999796e+00
2.01604422e+00
2.04647808e+00
2.35246003e+00
1.89259387e+00
1.93043341e+00
2.56214858e+00
2.44105405e+00
1.89118622e+00
2.11831206e+00
2.03507289e+00
2.33372548e+00
2.04740672e+00
2.02656920e+00
2.02661916e+00
2.02656920e+00
4.38540787e+00
2.23616576e+00
1.92853311e+00
2.06940220e+00
1.93916523e+00
2.58931159e+00
2.22910998e+00
1.89577367e+00
1.97297613e+00
2.04382910e+00
1.96630981e+00
1.91697012e+00
1.99786777e+00
2.13951579e+00
2.02162316e+00
2.10823339e+00
2.05672171e+00
2.05672171e+00
2.21903857e+00
1.99926735e+00
1.94371557e+00
2.00480554e+00
3.14228163e+00
1.97461115e+00
1.97461115e+00
2.21753368e+00
1.93134483e+00
1.99220175e+00
2.52958164e+00
2.13951579e+00
2.45681298e+00
2.16673634e+00
2.05236895e+00
1.90504573e+00
2.70011120e+00
2.13257787e+00
2.74986122e+00
2.01763449e+00
2.11516198e+00
2.24152421e+00
1.97156489e+00
2.06433107e+00
2.37505022e+00
1.99926735e+00
2.17492904e+00
2.89800628e+00
2.11607252e+00
2.21698044e+00
2.21698044e+00
2.11388660e+00
2.08788488e+00
2.32604882e+00
2.25810212e+00
2.33776356e+00
1.97033648e+00
2.22240524e+00
2.00126947e+00
2.01796037e+00
1.96794671e+00
2.44938982e+00
2.08019746e+00
2.08019746e+00
2.04979280e+00
2.06773918e+00
2.11299769e+00
2.20635771e+00
2.21570736e+00
2.03797319e+00
2.25010231e+00
1.93481526e+00
2.34701132e+00
1.95159281e+00
1.95473980e+00
2.31006449e+00
1.92653310e+00
2.34725958e+00
1.89880309e+00
2.37394222e+00
1.91402052e+00
2.21239629e+00
1.95586506e+00
1.95955798e+00
2.32675030e+00
1.95586506e+00
1.99758707e+00
2.10585671e+00
2.02800563e+00
2.07621480e+00
2.07621480e+00
1.90398654e+00
2.09944152e+00
1.96594464e+00
1.96594464e+00
1.93491121e+00
1.99584593e+00
2.01407518e+00
2.60458317e+00
2.07342883e+00
2.29328252e+00
2.61447833e+00
2.05808596e+00
1.93421703e+00
2.33725230e+00
1.96702419e+00
1.95963896e+00
1.97715554e+00
2.02800408e+00
2.11492980e+00
1.99207884e+00
2.06433107e+00
2.11542037e+00
2.72921485e+00
2.04099130e+00
2.04099130e+00
2.67672247e+00
2.67672247e+00
2.02346396e+00
1.88946464e+00
1.97749625e+00
2.07625222e+00
1.92796947e+00
2.16768594e+00
1.89890767e+00
1.89890767e+00
2.41415779e+00
2.49069034e+00
2.07927254e+00
2.37108292e+00
1.94667288e+00
1.94667288e+00
2.08818062e+00
1.93981859e+00
2.86970528e+00
1.93558729e+00
2.03504931e+00
2.22110178e+00
2.28694543e+00
2.22315263e+00
2.03610258e+00
3.49142479e+00
2.15331182e+00
2.07940475e+00
1.97135783e+00
1.91929588e+00
1.95938558e+00
2.25975940e+00
2.04593291e+00
2.07164474e+00
1.92860187e+00
2.17456835e+00
2.68852817e+00
1.96382127e+00
1.96382127e+00
1.96308336e+00
1.98039563e+00
2.15483986e+00
2.68578294e+00
2.38550274e+00
1.92180262e+00
1.98005307e+00
2.25459828e+00
2.27714025e+00
1.90222339e+00
2.06050532e+00
2.21111385e+00
2.00847551e+00
2.32434027e+00
2.06414999e+00
2.24779620e+00
2.00082408e+00
1.95139496e+00
1.95139496e+00
1.98012904e+00
2.09190538e+00
2.02049801e+00
1.99014460e+00
2.13693198e+00
2.48314943e+00
1.95039795e+00
2.23366836e+00
2.23366836e+00
2.13785614e+00
2.12727872e+00
2.14190283e+00
1.91690974e+00
2.42038393e+00
1.96750459e+00
2.17617041e+00
2.22038054e+00
2.19946752e+00
2.19946752e+00
1.89297207e+00
2.00427925e+00
2.59827512e+00
1.93523401e+00
1.98204606e+00
2.03567324e+00
2.31581435e+00
2.67866881e+00
2.28369753e+00
2.17051827e+00
2.17051827e+00
1.91935130e+00
1.97498533e+00
1.97777840e+00
1.92112220e+00
2.07152380e+00
1.94633802e+00
1.96307930e+00
2.03235028e+00
2.19851902e+00
2.15197292e+00
2.01187190e+00
2.04978138e+00
2.27071456e+00
3.00352472e+00
1.89145578e+00
2.22546613e+00
2.43926477e+00
2.22321149e+00
2.21626550e+00
1.93682416e+00
2.07491008e+00
3.44698525e+00
2.20462340e+00
2.46353218e+00
1.96134129e+00
1.92550007e+00
2.20437067e+00
2.39820523e+00
2.11918326e+00
2.29783556e+00
2.31843495e+00
2.17740986e+00
2.42743772e+00
2.49020702e+00
1.97027823e+00
1.97027823e+00
2.24136810e+00
2.09515543e+00
2.09515543e+00
1.91097221e+00
2.09205062e+00
2.09205062e+00
2.09858596e+00
1.96390072e+00
1.96390072e+00
2.25894444e+00
2.40766265e+00
2.05201824e+00
2.05201824e+00
2.40766265e+00
2.16512136e+00
1.99951442e+00
2.11549208e+00
1.99951442e+00
1.96134129e+00
1.93354472e+00
1.99442930e+00
1.93354472e+00
1.90435648e+00
2.20456865e+00
2.15240709e+00
2.42322865e+00
1.99948283e+00
1.99948283e+00
2.53167582e+00
2.43065247e+00
3.02875067e+00
2.32720066e+00
2.04042442e+00
2.39540776e+00
2.03838592e+00
1.98176623e+00
2.02175474e+00
1.98176623e+00
2.35194714e+00
1.96451673e+00
7.47662944e+00
2.00984757e+00
1.98087248e+00
1.98087248e+00
2.18327661e+00
2.42609982e+00
2.01059111e+00
3.76526079e+00
2.54329650e+00
2.18056831e+00
2.26706178e+00
2.14591919e+00
2.51748760e+00
1.90316773e+00
1.90316773e+00
1.96705744e+00
1.95239797e+00
1.99533147e+00
1.97205695e+00
1.94151510e+00
2.09853067e+00
2.06675023e+00
2.06675023e+00
2.45286466e+00
2.37250209e+00
1.90655716e+00
1.91332163e+00
2.09853067e+00
1.92723579e+00
1.92723579e+00
2.02511716e+00
1.89820994e+00
1.89820994e+00
1.93679390e+00
1.93679390e+00
1.95382047e+00
1.95786207e+00
2.05234154e+00
2.07837718e+00
2.41729456e+00
2.05234154e+00
2.09709471e+00
1.92138077e+00
2.21429320e+00
1.89322812e+00
1.90870201e+00
1.91672579e+00
1.91070118e+00
2.34725958e+00
2.17315281e+00
2.21562012e+00
2.10855253e+00
2.24387478e+00
1.98062482e+00
2.00772542e+00
1.90870201e+00
1.93805104e+00
1.93805104e+00
2.08540340e+00
1.89394401e+00
1.98580866e+00
2.39012924e+00
2.39012924e+00
1.91737000e+00
1.98028893e+00
1.93435677e+00
1.98772374e+00
1.94589703e+00
2.10605797e+00
2.50335970e+00
2.53200717e+00
2.17096232e+00
2.02636990e+00
1.96978559e+00
1.89009025e+00
1.89009025e+00
1.90697905e+00
1.94827418e+00
1.95443343e+00
1.95443343e+00
2.50089641e+00
2.01620517e+00
1.90703740e+00
1.90006034e+00
1.89035150e+00
2.21072752e+00
2.03544127e+00
1.97553003e+00
1.91450682e+00
1.92156241e+00
1.93890953e+00
1.93890953e+00
1.89711353e+00
1.89072098e+00
2.38379032e+00
2.16387316e+00
1.89711353e+00
1.95973883e+00
2.03871351e+00
1.95852837e+00
2.06720356e+00
1.91450682e+00
1.89112491e+00
1.90704689e+00
1.89598637e+00
2.41834974e+00
2.16787383e+00
1.97601184e+00
1.99653668e+00
1.99653668e+00
2.31870528e+00
2.14456875e+00
2.10419610e+00
3.06725575e+00
2.06688138e+00
1.89537671e+00
1.97653690e+00
1.91375740e+00
1.94831111e+00
2.48846427e+00
2.23120376e+00
2.07383952e+00
2.23120376e+00
2.23842628e+00
2.03916460e+00
2.03916460e+00
2.10047431e+00
2.10047431e+00
2.52091908e+00
2.00091309e+00
2.13515410e+00
1.94640910e+00
2.04174181e+00
2.33179593e+00
2.19703148e+00
2.04751778e+00
2.47597078e+00
2.53409022e+00
3.35861372e+00
2.08221748e+00
2.08221748e+00
2.06354666e+00
2.19025046e+00
2.04711637e+00
2.06586900e+00
1.93060358e+00
1.90655540e+00
1.90655540e+00
2.35610549e+00
2.00499780e+00
1.94864970e+00
2.04859215e+00
1.92499899e+00
2.52752379e+00
1.97609099e+00
2.17526428e+00
1.95149637e+00
1.95047041e+00
1.95756917e+00
2.32940130e+00
1.98566782e+00
1.95756917e+00
2.19266103e+00
2.09762014e+00
1.96182481e+00
2.22037177e+00
2.13292064e+00
1.94180584e+00
2.08863084e+00
1.97855470e+00
2.45744215e+00
1.97855470e+00
1.91121654e+00
1.93862176e+00
2.05302141e+00
2.54289525e+00
1.96182481e+00
2.06064254e+00
2.14826905e+00
2.14826905e+00
2.00838565e+00
2.00507359e+00
2.02579492e+00
2.00920874e+00
2.20872972e+00
2.31105345e+00
2.08510545e+00
2.08510545e+00
2.20060324e+00
1.90056304e+00
1.89130700e+00
2.62123748e+00
1.93853014e+00
2.31107564e+00
2.21809446e+00
2.68188366e+00
2.19660424e+00
2.15869250e+00
2.06167782e+00
2.20301992e+00
1.90781050e+00
2.28127525e+00
2.37239734e+00
2.24037890e+00
2.02043534e+00
2.00676750e+00
1.90781050e+00
2.04101212e+00
2.26777373e+00
1.96608822e+00
2.04678543e+00
1.94021444e+00
2.51637939e+00
2.11455496e+00
1.92925612e+00
1.93895298e+00
1.93146065e+00
1.94370169e+00
1.97022693e+00
1.97022693e+00
1.95100497e+00
1.98109904e+00
1.93146065e+00
2.53945327e+00
1.93666097e+00
1.94913290e+00
1.91174688e+00
2.07790908e+00
1.91174688e+00
2.21226090e+00
2.05718741e+00
1.98903451e+00
1.98513937e+00
2.16539524e+00
1.98225301e+00
1.92661927e+00
2.42082241e+00
1.98613515e+00
1.90375010e+00
1.90108159e+00
2.50217457e+00
2.47616118e+00
2.49646324e+00
2.04313907e+00
1.95892851e+00
1.96631530e+00
1.89813368e+00
1.89813368e+00
1.91909171e+00
1.91909171e+00
2.16289904e+00
2.18030750e+00
2.18404322e+00
1.93643093e+00
1.92086776e+00
2.12159883e+00
2.59193382e+00
2.01598314e+00
2.58221852e+00
2.92353411e+00
3.21523169e+00
1.99766708e+00
1.99766708e+00
2.02436719e+00
1.97543842e+00
2.14486626e+00
2.37326231e+00
2.37326231e+00
2.42493363e+00
2.03644005e+00
2.54292258e+00
2.03644005e+00
2.16651881e+00
3.16315377e+00
1.99794206e+00
2.00628024e+00
1.98119096e+00
1.99794206e+00
1.97386255e+00
1.89361840e+00
1.98908960e+00
1.97386255e+00
2.22010320e+00
2.13345991e+00
2.05971787e+00
2.05971787e+00
2.56221215e+00
2.18071508e+00
1.93980510e+00
2.00628024e+00
1.99321327e+00
2.11818343e+00
2.03642023e+00
2.32756572e+00
2.08188684e+00
1.89504273e+00
2.11852724e+00
1.89778755e+00
2.35627084e+00
1.96795085e+00
1.89778755e+00
2.62222652e+00
2.47668306e+00
2.23214113e+00
1.94623297e+00
2.27169067e+00
2.55608454e+00
1.98397391e+00
2.11238864e+00
2.16222506e+00
1.98397391e+00
1.97632446e+00
2.36279482e+00
2.01777599e+00
1.89674349e+00
2.65642137e+00
1.89674349e+00
2.05247053e+00
2.65970308e+00
2.08532703e+00
1.89769537e+00
1.91346671e+00
1.89769537e+00
2.02316748e+00
1.96867472e+00
1.95407026e+00
1.98069264e+00
2.03052010e+00
1.90175930e+00
1.90175930e+00
2.13610561e+00
1.92025172e+00
1.92025172e+00
2.12867509e+00
2.22393869e+00
2.01129937e+00
2.30989590e+00
1.88897552e+00
1.92990135e+00
2.33614753e+00
2.70268755e+00
1.89910111e+00
2.33614753e+00
2.16475740e+00
1.94144689e+00
1.94144689e+00
1.93351996e+00
2.02935009e+00
2.09470342e+00
2.11170933e+00
2.16213295e+00
2.06675490e+00
2.15145754e+00
2.06675490e+00
2.56337407e+00
2.24131512e+00
2.48254618e+00
2.49956239e+00
2.33799375e+00
1.93720921e+00
1.97548962e+00
1.93720921e+00
2.12696568e+00
1.97827625e+00
2.19291645e+00
2.03701464e+00
1.99409940e+00
1.99409940e+00
2.05325543e+00
2.27354219e+00
2.25902768e+00
2.36551577e+00
2.46583808e+00
1.97416402e+00
2.10760821e+00
1.90286073e+00
1.97416402e+00
2.05819048e+00
2.09541374e+00
1.93363057e+00
2.32490653e+00
1.99810957e+00
1.99810957e+00
1.93171487e+00
1.93171487e+00
2.04438990e+00
1.91133656e+00
2.04718090e+00
2.04718090e+00
2.07256496e+00
2.03770476e+00
2.02613373e+00
2.09746842e+00
2.20177514e+00
1.91032226e+00
2.02761894e+00
2.03672186e+00
2.16662700e+00
2.04986556e+00
1.95927579e+00
1.98040279e+00
2.58675694e+00
2.28770835e+00
2.14541660e+00
1.94824148e+00
2.23916060e+00
2.63638473e+00
2.63638473e+00
2.78140830e+00
1.96192411e+00
2.12649463e+00
1.95447198e+00
1.96238096e+00
1.92894529e+00
2.00602437e+00
2.60116064e+00
1.98053547e+00
2.16388812e+00
2.16388812e+00
2.35040773e+00
2.03945133e+00
2.04993900e+00
2.41039582e+00
1.95925435e+00
1.95925435e+00
2.26370463e+00
1.89149391e+00
2.17101235e+00
2.17101235e+00
2.23444763e+00
1.97034886e+00
1.97034886e+00
1.93285618e+00
2.08237866e+00
2.43002141e+00
2.19841238e+00
1.99669642e+00
2.26661750e+00
2.01092140e+00
1.98146564e+00
2.01092140e+00
2.00602437e+00
2.18086510e+00
2.11817958e+00
1.92742040e+00
1.90106652e+00
1.96261869e+00
1.97436094e+00
1.95602307e+00
2.12590972e+00
2.20207155e+00
2.22444407e+00
1.93220147e+00
1.94505442e+00
1.94701339e+00
1.94505442e+00
2.44213382e+00
2.08165892e+00
2.08165892e+00
1.94701339e+00
2.46095143e+00
2.13250937e+00
2.16339564e+00
1.90624858e+00
1.90624858e+00
2.00122025e+00
1.95056626e+00
1.95056626e+00
2.24058021e+00
2.20462274e+00
2.06172429e+00
2.06998255e+00
2.58044320e+00
2.39278840e+00
2.14651306e+00
2.03484874e+00
2.17974428e+00