# vtk DataFile Version 2.0
z-phase-transition mesh
ASCII
DATASET UNSTRUCTURED_GRID

POINTS 7600 float
3.24478275e-01 9.69108254e-01 0.0
7.94217752e-01 5.40074520e-01 0.0
2.18527290e-01 1.60184342e-01 0.0
1.41720431e-01 8.50062554e-01 0.0
6.31614584e-01 7.04824079e-01 0.0
1.28875133e-02 9.90624286e-01 0.0
8.75387238e-01 1.12373918e-01 0.0
2.96515656e-01 3.46314666e-02 0.0
2.49457274e-01 5.17214906e-01 0.0
4.64933496e-01 4.17322942e-01 0.0
4.63189576e-01 9.88783304e-02 0.0
1.21997970e-01 3.68891601e-01 0.0
4.77804671e-01 9.12439621e-01 0.0
2.09324563e-01 5.97756449e-01 0.0
6.39121535e-01 1.16305570e-02 0.0
4.94827992e-01 1.92524308e-01 0.0
1.00000000e-03 9.99000000e-01 0.0
9.52667065e-01 9.04011541e-01 0.0
2.66196614e-01 1.19180177e-01 0.0
7.00980935e-01 4.36548964e-01 0.0
8.74254738e-02 5.26573392e-01 0.0
1.00000000e-03 8.12565576e-01 0.0
3.58206133e-01 7.20695723e-01 0.0
3.16982405e-01 6.53279412e-01 0.0
5.25289038e-01 2.90670713e-01 0.0
9.83630555e-01 6.93152763e-01 0.0
9.99000000e-01 9.74084218e-01 0.0
5.88218296e-01 9.80047936e-01 0.0
5.61962273e-02 2.62314785e-01 0.0
1.00000000e-03 2.43746224e-01 0.0
4.67018069e-01 2.51376589e-01 0.0
8.45340893e-01 2.49010474e-01 0.0
4.28763869e-01 6.37938455e-01 0.0
1.24869408e-01 7.69821312e-01 0.0
1.56918993e-01 9.99000000e-01 0.0
8.48545590e-01 3.72459895e-01 0.0
1.00000000e-03 7.49910482e-01 0.0
6.11742054e-01 7.64348020e-01 0.0
7.85318631e-01 6.18885619e-02 0.0
4.23206419e-01 2.14455348e-01 0.0
7.41050433e-01 5.75540365e-01 0.0
3.96509512e-01 2.61392556e-02 0.0
2.47125836e-01 4.06666316e-01 0.0
6.26446173e-01 6.13431087e-01 0.0
9.13504265e-01 4.26309332e-01 0.0
1.82246698e-01 6.67734629e-01 0.0
8.73474608e-01 5.51217494e-01 0.0
8.24668791e-01 5.53477513e-01 0.0
4.72529629e-01 2.63262094e-01 0.0
5.42795871e-02 1.13674495e-01 0.0
7.58952679e-02 6.18288213e-01 0.0
2.79921765e-01 6.69248532e-01 0.0
7.89778149e-01 3.08008267e-01 0.0
3.64414774e-01 7.28688849e-01 0.0
2.03429939e-01 1.27051679e-02 0.0
3.35449390e-01 2.72472775e-01 0.0
9.67298745e-01 8.16390939e-01 0.0
5.54488517e-01 9.12806611e-01 0.0
9.76180047e-01 1.56114489e-01 0.0
8.62480312e-01 4.94455111e-01 0.0
7.68287016e-01 6.76467336e-01 0.0
3.50406306e-01 4.24077504e-02 0.0
9.91141130e-02 4.87362985e-01 0.0
7.31453343e-01 8.33637059e-01 0.0
1.24267522e-01 3.98010039e-01 0.0
2.94803144e-01 2.43652306e-01 0.0
2.11824356e-01 2.11667834e-01 0.0
9.75524883e-01 3.69682895e-01 0.0
3.54057783e-01 7.66899066e-01 0.0
4.33758073e-01 9.46839237e-01 0.0
9.99000000e-01 3.42698742e-01 0.0
5.05497940e-01 2.64762679e-01 0.0
2.07014263e-01 3.38818666e-02 0.0
6.55145048e-01 4.76744874e-01 0.0
1.00000000e-03 3.80143576e-01 0.0
9.23483744e-01 2.09191931e-01 0.0
2.13467543e-01 6.11423848e-01 0.0
7.61497529e-01 2.76796364e-01 0.0
5.58003611e-01 8.01548456e-01 0.0
2.47871720e-01 7.79074471e-01 0.0
3.27843324e-01 4.82446622e-01 0.0
5.97500255e-01 5.68322495e-01 0.0
1.71521156e-01 7.41555992e-01 0.0
4.02944899e-01 1.34688727e-01 0.0
6.97711321e-02 5.50101427e-01 0.0
6.92138012e-01 8.79380397e-02 0.0
4.13931932e-01 1.72103303e-01 0.0
6.59969797e-01 3.66493122e-01 0.0
6.21882561e-01 5.49946057e-01 0.0
9.99000000e-01 1.29736052e-01 0.0
3.17214149e-01 5.81083053e-02 0.0
9.19237416e-01 7.64801799e-01 0.0
2.51842506e-01 7.79734468e-01 0.0
7.68335395e-01 5.35942867e-01 0.0
3.93559340e-01 2.71777258e-01 0.0
1.14261303e-01 9.02311947e-01 0.0
8.83071893e-01 6.09680824e-01 0.0
3.79181810e-01 3.46904246e-01 0.0
7.51153429e-01 9.14308885e-01 0.0
9.76960607e-01 8.34035074e-01 0.0
6.57460594e-01 2.05613727e-01 0.0
1.95250196e-01 9.99000000e-01 0.0
6.54984468e-01 1.00000000e-03 0.0
2.05858324e-01 6.74315868e-01 0.0
1.00000000e-03 1.83315919e-01 0.0
5.21135136e-01 7.10057507e-01 0.0
6.04611174e-01 3.26211090e-01 0.0
7.03092172e-01 2.06642380e-01 0.0
2.51405633e-01 7.67993468e-01 0.0
6.64601467e-01 8.80297380e-01 0.0
5.75432741e-01 4.40214107e-01 0.0
1.43722072e-01 4.86487152e-01 0.0
1.83094078e-01 3.71144946e-01 0.0
9.95723439e-01 3.92532692e-01 0.0
8.60242659e-01 5.20377184e-01 0.0
8.73829585e-01 4.40588584e-01 0.0
5.14519351e-01 5.71871799e-01 0.0
4.46043121e-02 6.00564290e-01 0.0
2.79321623e-01 4.77787208e-02 0.0
6.84251068e-01 1.52966800e-01 0.0
9.99000000e-01 9.35697172e-01 0.0
8.96401498e-01 3.06399767e-01 0.0
2.53691619e-02 9.77515461e-01 0.0
5.24470393e-01 8.47512078e-01 0.0
9.43940350e-01 8.88745744e-01 0.0
3.41413495e-01 3.85621621e-01 0.0
8.94530589e-01 2.52204894e-01 0.0
2.94125181e-01 6.36211511e-01 0.0
8.28560551e-01 6.10021553e-01 0.0
4.86307430e-01 1.51414091e-01 0.0
5.12229005e-01 9.63571903e-01 0.0
1.76460367e-01 5.13036378e-01 0.0
8.98084073e-01 6.55504401e-01 0.0
7.44604091e-01 6.53427133e-01 0.0
3.33521577e-01 3.12610382e-01 0.0
8.17607413e-01 8.12031796e-01 0.0
8.07022173e-01 8.89276600e-01 0.0
5.11517086e-01 3.91509476e-01 0.0
7.61292542e-01 6.80978321e-01 0.0
5.99771949e-01 8.88319202e-01 0.0
9.91574403e-01 2.38383111e-01 0.0
4.84192523e-01 8.24954127e-02 0.0
6.11761306e-01 1.00000000e-03 0.0
5.39441604e-01 5.75132156e-01 0.0
2.21408992e-01 4.97617101e-01 0.0
1.00000000e-03 5.23835309e-02 0.0
8.68398274e-01 4.12267896e-01 0.0
1.17622025e-01 4.29683544e-01 0.0
7.15427569e-01 3.08008919e-01 0.0
5.84120191e-01 9.68208754e-02 0.0
1.00000000e-03 5.58281275e-01 0.0
5.04020357e-01 7.21166919e-01 0.0
7.87975950e-01 9.36195604e-01 0.0
5.06167226e-01 2.78867174e-01 0.0
6.81631539e-01 2.02236857e-01 0.0
4.54828807e-01 1.04477141e-01 0.0
3.72345757e-02 9.38509770e-01 0.0
9.10625449e-01 7.01057558e-01 0.0
4.65213251e-01 3.13923095e-02 0.0
1.00000000e-03 2.72945940e-01 0.0
4.35245412e-01 6.97599786e-01 0.0
6.36029613e-01 4.06925945e-01 0.0
9.86865005e-01 7.51165639e-01 0.0
6.21313345e-01 6.41200553e-01 0.0
3.82985903e-01 3.33449064e-01 0.0
2.67192668e-01 7.83705885e-01 0.0
1.00000000e-03 1.32388149e-01 0.0
6.14418134e-02 1.74845199e-01 0.0
7.30262673e-01 6.55586885e-01 0.0
5.39988423e-01 1.24659541e-01 0.0
5.06040279e-01 3.96980915e-01 0.0
1.25936402e-01 5.33454930e-01 0.0
3.94383999e-01 6.45878874e-01 0.0
6.25878585e-01 1.00000000e-03 0.0
4.49317449e-01 6.66118506e-01 0.0
6.87587206e-01 7.75243331e-01 0.0
7.24499465e-01 5.80109098e-02 0.0
8.31564728e-02 7.20539805e-01 0.0
1.00000000e-03 5.69380983e-01 0.0
8.95173463e-01 5.19317594e-01 0.0
4.18986938e-01 7.32943075e-01 0.0
4.47590593e-01 5.62055704e-01 0.0
9.50609509e-01 3.86246918e-01 0.0
8.74043153e-01 9.94026210e-01 0.0
2.19406764e-01 1.00951820e-01 0.0
3.62572311e-02 1.00000000e-03 0.0
8.03522249e-02 5.60276798e-01 0.0
1.00000000e-03 2.70915796e-01 0.0
8.86676972e-01 1.00000000e-03 0.0
7.32964067e-01 2.16679923e-01 0.0
8.17374338e-02 6.68428448e-01 0.0
8.02184563e-01 9.61841664e-01 0.0
8.17052973e-01 8.96967360e-01 0.0
2.02128903e-01 7.96503746e-02 0.0
6.62065128e-01 9.13595230e-01 0.0
9.46729799e-01 3.12509182e-01 0.0
3.37538390e-01 7.57324518e-01 0.0
3.62276602e-01 9.50833407e-01 0.0
7.92158307e-01 4.83846539e-01 0.0
6.99735585e-01 7.42040767e-01 0.0
1.58065794e-01 8.51207194e-01 0.0
4.59704259e-01 8.73790910e-01 0.0
2.51430947e-01 8.64739867e-01 0.0
4.33661053e-01 1.75165047e-01 0.0
9.53814337e-01 1.29097858e-01 0.0
3.61777764e-01 8.64206745e-01 0.0
9.59854886e-01 5.71056569e-01 0.0
6.57563975e-01 4.57766166e-01 0.0
3.23586746e-01 3.03747170e-01 0.0
6.77207169e-01 6.54148244e-01 0.0
7.65986461e-01 9.00884827e-01 0.0
1.16710770e-01 4.92746622e-01 0.0
2.09248622e-01 4.40662084e-01 0.0
3.52774057e-01 9.99000000e-01 0.0
3.54591887e-01 9.76603735e-02 0.0
4.70553360e-02 7.97326333e-01 0.0
6.61774853e-01 1.35631273e-02 0.0
7.28847593e-02 6.74127865e-01 0.0
9.32411781e-02 7.32320040e-01 0.0
8.06398024e-01 1.54614683e-01 0.0
5.57836694e-02 9.69326082e-01 0.0
3.63357024e-01 3.08377463e-01 0.0
7.77325214e-01 9.25626948e-01 0.0
9.99000000e-01 8.29107650e-01 0.0
4.51031962e-01 1.13094766e-01 0.0
6.87760755e-01 5.55084961e-01 0.0
5.01861086e-01 8.05693215e-01 0.0
1.62121739e-01 6.78433842e-01 0.0
9.62989764e-02 5.81782973e-01 0.0
7.37703757e-02 1.96252472e-01 0.0
6.00979896e-02 7.12879407e-01 0.0
7.98395930e-01 6.06561659e-01 0.0
9.99000000e-01 3.31767792e-01 0.0
2.70747485e-01 8.76236091e-01 0.0
1.41226961e-01 9.81377095e-01 0.0
1.00000000e-03 9.99000000e-01 0.0
4.68909013e-02 8.49471681e-01 0.0
4.60951220e-01 9.74198474e-01 0.0
1.28857342e-01 5.97673403e-01 0.0
9.12859500e-01 4.55414670e-01 0.0
6.81950535e-01 6.37960897e-01 0.0
4.59333847e-01 6.37458451e-01 0.0
6.09279282e-01 9.69819645e-01 0.0
1.00000000e-03 1.28070444e-01 0.0
9.05015702e-01 9.99000000e-01 0.0
6.17430681e-01 7.66626769e-01 0.0
2.61942674e-01 4.55519532e-02 0.0
2.76255277e-01 3.04229175e-01 0.0
5.67810221e-01 1.81784669e-01 0.0
9.99000000e-01 9.99000000e-01 0.0
6.26974132e-01 4.59234002e-01 0.0
3.29857831e-01 8.69559098e-01 0.0
7.16081674e-01 7.98491026e-02 0.0
9.62980595e-01 8.56610120e-01 0.0
8.64146601e-01 6.62973831e-01 0.0
6.68494874e-01 3.99482433e-01 0.0
9.99000000e-01 9.06154232e-01 0.0
6.28817505e-03 2.55505265e-02 0.0
3.81534038e-01 7.52282106e-01 0.0
9.14269073e-01 2.06528083e-01 0.0
6.61752579e-01 4.29193374e-01 0.0
9.99000000e-01 7.98777064e-01 0.0
9.72270366e-01 3.96619470e-01 0.0
3.33804657e-01 1.32610361e-01 0.0
2.07118715e-02 8.24424589e-01 0.0
8.54975992e-01 9.99000000e-01 0.0
9.01198967e-01 5.24013607e-01 0.0
7.39270453e-01 8.02687150e-01 0.0
7.71171653e-01 1.85683011e-01 0.0
5.65234137e-01 1.44475472e-01 0.0
9.99000000e-01 4.86283795e-01 0.0
3.24179964e-01 7.75788849e-01 0.0
4.58260643e-01 3.01737380e-01 0.0
1.53218838e-01 7.23124272e-01 0.0
4.66028122e-01 7.47878435e-01 0.0
4.72373016e-01 8.61014944e-01 0.0
6.47681121e-01 4.99254599e-01 0.0
9.56719242e-01 3.40949100e-01 0.0
6.62050515e-02 9.42702458e-02 0.0
8.28892166e-01 6.88422346e-01 0.0
5.98815975e-01 1.75688083e-01 0.0
2.02210563e-01 1.78680129e-02 0.0
2.64692131e-01 6.26583122e-01 0.0
3.35059464e-01 5.81036910e-01 0.0
9.99000000e-01 3.96583261e-01 0.0
6.22870026e-01 7.88836321e-01 0.0
4.57777782e-01 7.40304324e-01 0.0
8.82003603e-01 9.29105650e-01 0.0
1.07037243e-02 9.19936943e-01 0.0
5.57990148e-01 3.33895063e-01 0.0
4.99484961e-01 9.36728648e-01 0.0
[...]
CELL_DATA 14222
SCALARS z float 1
LOOKUP_TABLE default
1.90150844e+00
1.90150844e+00
2.30541374e+00
2.30541374e+00
1.94678954e+00
1.94678954e+00
1.90515301e+00
1.92652420e+00
2.46399637e+00
2.13232226e+00
2.28039578e+00
2.05857441e+00
2.06630577e+00
2.20706306e+00
2.28503724e+00
2.11842185e+00
2.43939437e+00
4.16665345e+00
2.23886732e+00
2.15482852e+00
2.05300844e+00
1.99520020e+00
3.34506019e+00
2.62006787e+00
2.59977111e+00
2.11552339e+00
1.97691174e+00
2.28039578e+00
1.96882021e+00
2.14745029e+00
1.99239450e+00
1.99239450e+00
2.09106044e+00
1.89792649e+00
1.98985826e+00
3.39312341e+00
1.98997468e+00
1.98997468e+00
1.96521563e+00
2.34775015e+00
1.91516079e+00
1.91317633e+00
1.93273707e+00
2.13448103e+00
2.13448103e+00
2.51079242e+00
2.15822805e+00
2.12268778e+00
2.15081644e+00
2.11755252e+00
2.31077013e+00
2.42459514e+00
2.36854185e+00
2.36854185e+00
1.99139938e+00
2.30988018e+00
2.30988018e+00
2.00022305e+00
2.27344896e+00
1.94217367e+00
3.11570357e+00
2.53933317e+00
1.93086310e+00
1.93086310e+00
1.91058346e+00
1.91058346e+00
1.90063188e+00
2.03442632e+00
2.05906944e+00
1.90658720e+00
2.06830509e+00
2.00728192e+00
2.00728192e+00
2.02827578e+00
1.95177857e+00
2.80172635e+00
1.90726352e+00
2.09579507e+00
2.09579507e+00
2.46738030e+00
1.98985826e+00
2.17726743e+00
2.04166082e+00
2.04166082e+00
1.89647269e+00
1.89647269e+00
2.73013825e+00
2.41460558e+00
2.70710826e+00
2.63192518e+00
2.63192518e+00
2.06271516e+00
1.95971496e+00
3.17874995e+00
2.83530444e+00
2.06169614e+00
2.06169614e+00
2.13755415e+00
1.93095234e+00
1.90901280e+00
2.07602759e+00
2.12048840e+00
1.92522898e+00
2.29891474e+00
1.89334857e+00
1.94429788e+00
2.63007782e+00
2.20706306e+00
2.40790098e+00
1.91516079e+00
2.32278182e+00
2.27732409e+00
2.27732409e+00
1.93273707e+00
2.57319560e+00
2.01928250e+00
2.01928250e+00
1.95687607e+00
1.98899648e+00
1.98856356e+00
1.98856356e+00
2.06351321e+00
2.06351321e+00
2.17243924e+00
2.01149321e+00
2.35952975e+00
2.26604303e+00
2.17243924e+00
2.15147809e+00
2.04498890e+00
1.95971496e+00
2.06271516e+00
2.18247136e+00
1.94915148e+00
1.92327359e+00
1.93226521e+00
2.01426014e+00
1.89861556e+00
2.15571594e+00
2.13755203e+00
2.02627173e+00
2.14678941e+00
2.05349556e+00
2.05349556e+00
2.17993917e+00
2.83435710e+00
2.14683817e+00
1.99908781e+00
2.22407097e+00
2.11716264e+00
1.93841701e+00
2.25852657e+00
2.06186298e+00
2.07661930e+00
2.58443898e+00
1.89863527e+00
2.29486263e+00
2.58583226e+00
2.08150056e+00
2.17228312e+00
2.18634575e+00
1.90995597e+00
2.25772731e+00
2.13656539e+00
2.54325820e+00
2.23835349e+00
2.19590832e+00
2.31429385e+00
2.31429385e+00
1.95758876e+00
1.99473445e+00
1.99473445e+00
1.97762805e+00
2.10521237e+00
1.97762805e+00
2.32271731e+00
2.23461525e+00
2.19369826e+00
2.35468634e+00
2.18221830e+00
1.94218919e+00
1.90278603e+00
1.92819720e+00
2.04950756e+00
1.90278603e+00
2.07989359e+00
2.17854073e+00
1.96000472e+00
1.96000472e+00
2.07989359e+00
2.29424295e+00
2.10031682e+00
1.99039367e+00
1.97264405e+00
2.05702321e+00
1.92553296e+00
2.26173712e+00
4.57109979e+00
1.98190612e+00
1.89626024e+00
1.89626024e+00
2.17393024e+00
2.17065181e+00
2.17065181e+00
2.23886732e+00
1.99139938e+00
2.83672648e+00
2.14242016e+00
3.26784821e+00
1.90738014e+00
1.98578297e+00
2.12674967e+00
2.18359541e+00
2.16359023e+00
2.77319233e+00
1.95999578e+00
2.31317769e+00
2.18738357e+00
2.52720973e+00
2.02142454e+00
1.89813482e+00
2.11888284e+00
2.02395800e+00
1.93796564e+00
2.13696182e+00
1.93586026e+00
1.94367537e+00
1.92229512e+00
2.16789477e+00
2.10181055e+00
1.92613532e+00
1.92613532e+00
2.24491870e+00
2.43539661e+00
2.22102715e+00
2.26880500e+00
2.49025579e+00
1.97186099e+00
1.97202630e+00
1.90063188e+00
1.99259848e+00
2.37922792e+00
2.18304289e+00
2.10211920e+00
1.95602415e+00
2.15535620e+00
2.00990320e+00
1.97363906e+00
2.03091712e+00
2.03091712e+00
2.15022203e+00
1.91010241e+00
1.91010241e+00
2.26880500e+00
2.25423193e+00
2.03442632e+00
1.96138751e+00
2.59360594e+00
1.96116813e+00
2.30152913e+00
2.20142703e+00
2.11571983e+00
2.02331641e+00
2.02331641e+00
2.36412428e+00
1.91054455e+00
2.29998777e+00
2.29998777e+00
1.90346553e+00
1.89756402e+00
1.89756402e+00
2.20416138e+00
1.98928995e+00
1.91515544e+00
1.91515544e+00
1.94817327e+00
1.94817327e+00
2.43177966e+00
2.70647513e+00
2.01741957e+00
2.01741957e+00
1.95181143e+00
2.07743470e+00
2.07743470e+00
2.29166640e+00
1.89917449e+00
1.92143847e+00
1.97479329e+00
1.97479329e+00
1.93031485e+00
2.35416955e+00
2.10045204e+00
2.15928739e+00
2.05935856e+00
2.02233554e+00
2.16333602e+00
1.89370197e+00
1.92295780e+00
1.89370197e+00
1.95010383e+00
1.92657770e+00
2.26309437e+00
1.95167599e+00
1.95881909e+00
1.95629855e+00
1.95629855e+00
2.62558897e+00
2.18916951e+00
2.07198822e+00
2.68640416e+00
2.10433267e+00
2.17906652e+00
2.51269627e+00
1.94777690e+00
2.07745636e+00
2.02580188e+00
2.07745636e+00
2.02580188e+00
1.90726352e+00
2.08435546e+00
1.96882021e+00
2.01607015e+00
2.39330453e+00
2.09457477e+00
1.89792649e+00
1.89487640e+00
1.89487640e+00
1.91499005e+00
1.90222844e+00
1.99995883e+00
1.99995883e+00
2.11656656e+00
2.19245121e+00
1.95327829e+00
1.96039249e+00
2.85937084e+00
2.47580014e+00
2.00272066e+00
2.37930232e+00
1.98890474e+00
2.10240170e+00
2.21876532e+00
1.99881995e+00
2.03922667e+00
1.99219109e+00
2.13755973e+00
2.04605259e+00
1.96639358e+00
2.13985602e+00
2.10538737e+00
1.99659611e+00
2.04261993e+00
1.99659611e+00
2.13696849e+00
1.95303623e+00
2.13696849e+00
1.93029878e+00
1.99749704e+00
2.06575446e+00
2.29921756e+00
2.28780963e+00
2.46843085e+00
2.06575446e+00
2.44058578e+00
1.93422195e+00
2.14370268e+00
2.03292726e+00
2.04427391e+00
2.27588061e+00
1.93422195e+00
2.21007716e+00
1.93029878e+00
2.16447531e+00
1.95230297e+00
2.02373242e+00
1.89170455e+00
1.89170455e+00
2.41875928e+00
1.95796679e+00
2.85958521e+00
2.29930325e+00
2.11275335e+00
1.98735063e+00
1.99458080e+00
1.98735063e+00
1.89773882e+00
2.58299375e+00
2.25853993e+00
1.91280752e+00
2.20384555e+00
1.99551709e+00
1.89037596e+00
2.10337847e+00
2.29610337e+00
2.34131073e+00
2.09909036e+00
1.91157349e+00
2.22300840e+00
2.22300840e+00
2.09964109e+00
2.46578207e+00
2.09648606e+00
1.89987782e+00
1.93891127e+00
2.11378179e+00
2.04810070e+00
2.02088496e+00
2.10279558e+00
2.03343639e+00
2.03343639e+00
1.94507133e+00
2.22946233e+00
2.09728878e+00
1.98259389e+00
2.01953935e+00
1.89417922e+00
2.01384916e+00
2.03020140e+00
2.03828426e+00
2.62919227e+00
2.52380346e+00
2.53696458e+00
2.05064993e+00
2.40217503e+00
2.14825868e+00
2.00464996e+00
2.07659479e+00
2.14679599e+00
2.26840548e+00
1.91130478e+00
1.91130478e+00
1.93777839e+00
1.96379941e+00
2.03635033e+00
1.93289836e+00
2.15536478e+00
2.13191433e+00
1.97724085e+00
1.98149715e+00
2.45052819e+00
2.13141204e+00
1.94710214e+00
1.95571736e+00
2.09458770e+00
1.94494001e+00
1.92779922e+00
2.29758770e+00
2.19920327e+00
2.03990380e+00
2.21296652e+00
2.12625279e+00
2.03898041e+00
2.23663167e+00
3.04498250e+00
1.94429788e+00
1.91317633e+00
2.10298672e+00
1.92657654e+00
1.92657654e+00
1.95512598e+00
1.97906455e+00
2.32821290e+00
1.97906455e+00
2.57319560e+00
3.00674304e+00
1.95687607e+00
1.92286628e+00
2.00332509e+00
3.23748972e+00
2.39996114e+00
2.39996114e+00
2.02671545e+00
2.21217668e+00
2.13987899e+00
2.26335882e+00
1.98499145e+00
2.01396997e+00
2.01396997e+00
2.08501338e+00
2.08501338e+00
2.12682587e+00
2.09097299e+00
2.29706502e+00
1.97083544e+00
2.04194784e+00
2.04093019e+00
2.22618534e+00
2.22618534e+00
2.46453702e+00
2.04194784e+00
2.19262035e+00
2.20969131e+00
1.96201200e+00
1.99787345e+00
2.30765481e+00
2.25632605e+00
1.92593371e+00
1.92593371e+00
2.74282110e+00
2.15908298e+00
1.99430527e+00
1.99430527e+00
2.08948067e+00
2.15560005e+00
1.89178085e+00
2.34119742e+00
1.90787906e+00
2.35844774e+00
2.04498890e+00
2.39671247e+00
1.91863331e+00
2.04840836e+00
2.05923158e+00
2.04840836e+00
1.98951381e+00
1.98951381e+00
1.92327359e+00
1.98730255e+00
1.95758876e+00
2.04975672e+00
2.32839645e+00
2.26763247e+00
2.09864955e+00
2.36396125e+00
2.17705998e+00
2.16949911e+00
2.56364329e+00
2.37116079e+00
2.37116079e+00
1.97778145e+00
1.97778145e+00
2.04294204e+00
1.90225815e+00
1.90225815e+00
2.30746708e+00
3.35999339e+00
2.05836143e+00
2.09414821e+00
1.90269329e+00
2.26230623e+00
3.03103499e+00
2.05836143e+00
2.04490524e+00
2.12207981e+00
2.31696281e+00
2.21718990e+00
1.93226521e+00
1.90517257e+00
1.90381450e+00
2.22639283e+00
2.01207856e+00
1.93238561e+00
2.00483929e+00
2.14816652e+00
2.12860346e+00
1.93238561e+00
1.90390337e+00
1.96757552e+00
2.80191923e+00
2.52210588e+00
2.25123482e+00
2.05979015e+00
2.35149388e+00
2.14384205e+00
2.05973592e+00
2.11378179e+00
2.07321695e+00
1.92529651e+00
1.90776488e+00
1.90776488e+00
1.96218535e+00
2.58870917e+00
1.91388027e+00
1.98174040e+00
1.98174040e+00
2.20819351e+00
1.91388027e+00
2.08123457e+00
2.09705094e+00
2.06584897e+00
2.09705094e+00
2.14126293e+00
2.52117996e+00
2.21452610e+00
1.90980043e+00
2.23007969e+00
2.15189556e+00
2.20448537e+00
1.94963604e+00
1.96155237e+00
2.15056987e+00
2.03851215e+00
1.90330444e+00
2.05618246e+00
1.93919385e+00
2.19409349e+00
2.12203820e+00
1.93865978e+00
1.98119165e+00
2.26949446e+00
1.99442629e+00
1.93095234e+00
2.01369354e+00
2.01369354e+00
2.04776786e+00
1.89400842e+00
1.94460267e+00
2.39241387e+00
1.96616492e+00
2.89852843e+00
3.52423756e+00
3.77591422e+00
4.51945283e+00
2.45582952e+00
2.45582952e+00
2.18708996e+00
1.93919385e+00
1.94505519e+00
2.26051671e+00
2.00291268e+00
2.37478436e+00
2.33495944e+00
2.54621335e+00
2.29486263e+00
1.95108812e+00
1.89863527e+00
2.01541859e+00
2.76478654e+00
1.89487413e+00
1.96375074e+00
2.26652068e+00
1.98221790e+00
1.92208239e+00
1.92208239e+00
1.93411782e+00
1.96658529e+00
1.96658529e+00
1.90337801e+00
2.15081644e+00
2.39196948e+00
1.90337801e+00
2.01515639e+00
1.90330444e+00
2.13552255e+00
1.96116021e+00
2.07634826e+00
2.70106437e+00
1.93085013e+00
1.90995597e+00
2.45457466e+00
2.37698404e+00
1.92411454e+00
1.99051590e+00
1.91679001e+00
2.46352610e+00
2.06676589e+00
2.03484089e+00
1.91911731e+00
1.89938633e+00
2.14799023e+00
1.89938633e+00
2.10037299e+00
2.04399558e+00
2.09817290e+00
2.25039857e+00
2.06769962e+00
1.99922146e+00
2.14460348e+00
1.99442629e+00
1.90159964e+00
1.90159964e+00
2.02173137e+00
1.90488546e+00
2.02173137e+00
1.91310632e+00
1.91310632e+00
2.13122578e+00
1.99435175e+00
2.22698984e+00
2.13011799e+00
2.08462134e+00
2.05683360e+00
1.94458179e+00
2.11755252e+00
2.34899248e+00
2.27702684e+00
2.04950756e+00
1.98418839e+00
2.03901624e+00
1.89394267e+00
1.94533340e+00
1.94589694e+00
1.94589694e+00
2.39988053e+00
2.50534820e+00
1.90876185e+00
1.94640841e+00
1.93450609e+00
2.25039763e+00
2.07477818e+00
2.07477818e+00
2.06834174e+00
2.08880073e+00
1.94395550e+00
1.94395550e+00
1.90004927e+00
1.97264405e+00
2.02971113e+00
2.49108386e+00
1.89144335e+00
1.89144335e+00
1.91123154e+00
2.07335237e+00
1.95160070e+00
1.95334586e+00
1.90380252e+00
1.91123154e+00
2.19305229e+00
1.93307495e+00
1.93908223e+00
1.90843842e+00
2.04051275e+00
1.90843842e+00
2.07651955e+00
2.02267230e+00
2.00333638e+00
2.32989052e+00
2.00190790e+00
2.15535518e+00
2.23461520e+00
3.26550424e+00
3.73699789e+00
2.24898774e+00
2.74300318e+00
1.98190612e+00
1.98036806e+00
1.98036806e+00
1.93162904e+00
1.93162904e+00
1.94018656e+00
2.14843870e+00
2.14843870e+00
1.94734485e+00
2.48720920e+00
1.98210233e+00
1.99678150e+00
2.14774115e+00
2.14242016e+00
2.14774115e+00
2.62984216e+00
4.69186395e+00
2.09104410e+00
1.99520020e+00
2.16662745e+00
2.21167244e+00
1.98578297e+00
1.97964768e+00
1.92706574e+00
1.99038297e+00
1.99038297e+00
1.97566961e+00
2.29851774e+00
2.32457215e+00
2.03021559e+00
2.07393611e+00
1.94540009e+00
2.11652575e+00
2.00622598e+00
2.22569508e+00
2.22569508e+00
2.32189287e+00
1.93673807e+00
1.98822522e+00
2.00022305e+00
1.97300380e+00
1.88941398e+00
2.25080247e+00
2.25462190e+00
2.25080247e+00
2.51228285e+00
1.92050756e+00
2.12839445e+00
2.09369767e+00
2.17778974e+00
2.07213359e+00
2.07213359e+00
2.64369812e+00
2.64369812e+00
1.95720862e+00
2.18060359e+00
1.97872870e+00
2.18086632e+00
1.92091795e+00
2.15109401e+00
2.28579941e+00
2.19207661e+00
1.96631749e+00
1.90603418e+00
2.00202576e+00
2.41410725e+00
2.41410725e+00
2.55666192e+00
2.04269647e+00
1.98839456e+00
2.43529637e+00
2.43544683e+00
1.93842924e+00
1.93842924e+00
2.21677934e+00
2.21677934e+00
2.46096606e+00
1.92554153e+00
2.37754446e+00
1.89813482e+00
1.90579920e+00
1.96599738e+00
1.97789042e+00
2.03844452e+00
2.01424652e+00
2.02135017e+00
2.16310975e+00
2.04511731e+00
2.04511731e+00
2.22800862e+00
2.12981052e+00
1.96852142e+00
2.01488845e+00
1.91863331e+00
1.98172921e+00
1.93102659e+00
1.90967500e+00
1.89364304e+00
2.10482654e+00
2.15535518e+00
2.00190790e+00
2.02373970e+00
2.01480888e+00
1.95018871e+00
1.89657570e+00
1.90959140e+00
2.23741554e+00
2.02819135e+00
1.98106901e+00
2.01490442e+00
1.90948837e+00
2.22587221e+00
1.95793712e+00
1.93421334e+00
2.17343108e+00
2.04637356e+00
2.78365855e+00
2.01707784e+00
1.92186632e+00
1.95003339e+00
2.05207430e+00
2.13353189e+00
2.22386114e+00
2.78802339e+00
1.96220907e+00
2.28309612e+00
2.01516144e+00
2.15120063e+00
2.20933652e+00
2.09543794e+00
1.97372018e+00
1.97923793e+00
1.97923793e+00
2.09912912e+00
2.44415742e+00
2.02574231e+00
1.89030267e+00
2.02368830e+00
2.20953057e+00
2.56186628e+00
2.41995533e+00
2.16608249e+00
2.20290160e+00
2.20290160e+00
1.97186099e+00
1.99987066e+00
2.13702155e+00
1.95502906e+00
2.33012860e+00
2.33012860e+00
2.70540546e+00
2.23987244e+00
2.32292517e+00
1.90554123e+00
1.89716902e+00
1.89716902e+00
2.06018059e+00
1.97202630e+00
2.15437467e+00
1.99490566e+00
1.99490566e+00
1.90554123e+00
1.94096934e+00
1.94096934e+00
2.63410335e+00
2.05770384e+00
2.02722600e+00
2.02722600e+00
2.20098204e+00
1.91931169e+00
1.91340150e+00
2.09238717e+00
1.94225861e+00
2.28749913e+00
1.98928995e+00
1.98700264e+00
1.98700264e+00
2.00702550e+00
1.99259848e+00
2.24331742e+00
2.79529628e+00
1.98099806e+00
1.93201855e+00
1.93201855e+00
1.97806607e+00
2.14778309e+00
2.97754986e+00
2.01930061e+00
2.03508051e+00
1.96318622e+00
1.91523095e+00
2.19662442e+00
2.19662442e+00
2.19883921e+00
1.94758318e+00
1.98099806e+00
1.98850743e+00
2.21481795e+00
2.16864545e+00
2.34094501e+00
2.07840148e+00
2.53939462e+00
1.90631014e+00
1.95031598e+00
1.99755106e+00
1.94590021e+00
1.95602415e+00
2.27346225e+00
2.20052961e+00
2.02824502e+00
1.95393679e+00
1.95393679e+00
1.95329910e+00
1.89464641e+00
2.70154513e+00
2.07703839e+00
2.55839602e+00
1.98027887e+00
2.48797336e+00
1.96957129e+00
1.98912904e+00
2.44785268e+00
1.89853019e+00
2.55988223e+00
1.89853019e+00
2.70185615e+00
2.13541501e+00
1.94515739e+00
2.00748298e+00
2.03816626e+00
1.91197995e+00
1.92593515e+00
1.95443717e+00
1.97183178e+00
2.27779921e+00
2.23367974e+00
1.95076927e+00
1.95076927e+00
2.26717645e+00
2.05119175e+00
1.94445431e+00
1.94445431e+00
2.10570090e+00
2.00227559e+00
2.12086640e+00
2.17808019e+00
1.96363339e+00
1.91987670e+00
2.20822169e+00
2.63570239e+00
1.91736524e+00
1.91736524e+00
1.91054455e+00
1.96366567e+00
2.79254865e+00
1.96366567e+00
2.37156663e+00
1.99259313e+00
2.04224699e+00
2.07884840e+00
2.04224699e+00
2.00681053e+00
1.92159489e+00
1.92159489e+00
2.27656997e+00
1.91987670e+00
2.32622353e+00
2.21221855e+00
2.13445324e+00
2.13445324e+00
1.98027887e+00
1.91128924e+00
1.91128924e+00
2.18751548e+00
1.95301017e+00
1.94365489e+00
2.11685293e+00
2.11943851e+00
2.11685293e+00
1.95504976e+00
1.94059270e+00
2.27742887e+00
1.94059270e+00
2.31720158e+00
1.94942500e+00
2.07261208e+00
2.12592954e+00
2.13312754e+00
2.06753947e+00
2.28261146e+00
2.08557427e+00
1.98525020e+00
2.12074474e+00
2.04098380e+00
2.04098380e+00
2.22873415e+00
2.31515102e+00
2.31515102e+00
2.29174276e+00
2.11055438e+00
2.11055438e+00
1.92637300e+00
2.44463318e+00
2.20734711e+00
2.15623067e+00
1.94873357e+00
1.94873357e+00
2.00613791e+00
3.02774382e+00
2.29166640e+00
2.16424870e+00
1.91164145e+00
1.91164145e+00
2.19756355e+00
2.27553756e+00
2.08477470e+00
1.95167599e+00
2.00624017e+00
1.95812179e+00
1.95812179e+00
1.92762599e+00
2.03806994e+00
2.03806994e+00
2.08610166e+00
1.89917449e+00
2.08610166e+00
2.75401935e+00
2.22413788e+00
2.13469022e+00
1.92657770e+00
2.18751820e+00
2.18638830e+00
2.05241576e+00
1.99729164e+00
1.98441292e+00
1.98441292e+00
2.00054431e+00
1.89211143e+00
2.12432078e+00
2.02233554e+00
2.10045204e+00
1.89220483e+00
1.89211143e+00
2.15086734e+00
1.94628104e+00
1.96115258e+00
1.94628104e+00
2.07459493e+00
2.07459493e+00
2.37389250e+00
2.22508368e+00
2.10068829e+00
1.97363906e+00
2.37139486e+00
2.26625656e+00
1.94620667e+00
1.91825963e+00
1.91825963e+00
1.94620667e+00
2.19756355e+00
2.12913908e+00
2.15809480e+00
2.19913041e+00
2.02107714e+00
2.12913908e+00
1.99901319e+00
1.92051337e+00
1.92632709e+00
1.96010408e+00
1.90658720e+00
2.00613791e+00
2.12160790e+00
1.97268072e+00
2.05416212e+00
1.98092666e+00
2.05416212e+00
1.90671539e+00
1.89220483e+00
1.95001976e+00
2.24406018e+00
1.99112017e+00
2.00199458e+00
2.08874261e+00
2.23926918e+00
2.11087563e+00
1.95437062e+00
2.07253497e+00
1.95437062e+00
2.03449126e+00
2.31929704e+00
2.04970157e+00
2.29489800e+00
2.68204086e+00
2.68204086e+00
2.07953302e+00
1.97675703e+00
2.25784042e+00
2.04655168e+00
1.96041688e+00
2.29574940e+00
1.96086958e+00
2.08187609e+00
2.08187609e+00
2.21976283e+00
2.24749635e+00
1.95003339e+00
2.03720279e+00
2.03838703e+00
1.99625588e+00
2.02285051e+00
1.94265805e+00
1.94265805e+00
2.09077680e+00
2.31633973e+00
2.29038455e+00
2.05107689e+00
2.29038455e+00
2.32663878e+00
1.99921466e+00
1.91530028e+00
1.91530028e+00
1.99593335e+00
1.99565828e+00
2.03366679e+00
2.08136676e+00
2.70958215e+00
1.95710394e+00
1.95645534e+00
2.13815224e+00
2.42771259e+00
2.68246647e+00
1.91193086e+00
1.90380252e+00
2.00832324e+00
1.96124678e+00
2.28095000e+00
2.87220057e+00
2.40389398e+00
2.09181365e+00
2.13148734e+00
2.32868340e+00
2.09291595e+00
2.04910175e+00
1.97323685e+00
2.48160613e+00
1.89169322e+00
1.89169322e+00
1.98108634e+00
2.18064408e+00
2.08435546e+00
2.18064408e+00
2.13232666e+00
1.95801721e+00
1.95801721e+00
7.51876043e+00
2.19237062e+00
2.25521858e+00
1.96985559e+00
1.90222844e+00
1.91373487e+00
1.91373487e+00
1.91499005e+00
2.03207130e+00
2.14782964e+00
2.14782964e+00
1.95654370e+00
1.94733107e+00
2.25935864e+00
2.31055694e+00
2.04681542e+00
2.70791495e+00
1.89077828e+00
2.03552182e+00
2.03552182e+00
2.15530688e+00
2.07854359e+00
2.00422550e+00
1.99090117e+00
1.98890474e+00
1.92679924e+00
2.34043856e+00
2.24653132e+00
1.97618807e+00
1.92165766e+00
1.93491419e+00
2.78339379e+00
2.10643110e+00
2.06844891e+00
2.06844891e+00
2.10643110e+00
1.99681247e+00
2.49754181e+00
2.14551494e+00
1.91732897e+00
2.42241306e+00
1.91732897e+00
2.05546784e+00
1.94451117e+00
1.94451117e+00
1.96781757e+00
1.91896970e+00
1.90985077e+00
1.90985077e+00
2.11692565e+00
1.92101088e+00
2.21170527e+00
2.20683087e+00
1.96193183e+00
2.22290945e+00
2.30384413e+00
2.87483905e+00
2.14370196e+00
2.08248101e+00
2.14370196e+00
1.93415654e+00
1.97725796e+00
1.95966857e+00
1.99577567e+00
2.02245163e+00
2.02944496e+00
1.99219109e+00
1.97926888e+00
1.98163528e+00
1.98163528e+00
2.10193244e+00
2.34796891e+00
2.16885211e+00
2.01789894e+00
2.12994669e+00
2.12348575e+00
3.03120014e+00
2.01233635e+00
1.95661987e+00
2.03278001e+00
1.90124468e+00
2.00858276e+00
2.01835309e+00
2.58332353e+00
1.97663562e+00
1.94570031e+00
2.13656413e+00
2.02862915e+00
1.93837002e+00
1.93837002e+00
2.09761696e+00
1.91235095e+00
1.91235095e+00
2.45070818e+00
2.07021934e+00
2.07021934e+00
2.10866116e+00
2.63578597e+00
2.57513901e+00
2.38892906e+00
2.09635437e+00
2.04219906e+00
1.91969868e+00
1.91969868e+00
2.14397856e+00
1.92267778e+00
2.45580309e+00
1.92267778e+00
2.14182557e+00
1.90479194e+00
1.94376971e+00
1.94376971e+00
1.95006471e+00
2.06951528e+00
2.43867127e+00
2.32348693e+00
1.98583034e+00
2.02326658e+00
2.12551910e+00
1.95796679e+00
2.08748318e+00
2.18855456e+00
2.29930325e+00
2.04497527e+00
2.36658383e+00
1.93494457e+00
1.91865651e+00
1.89313709e+00
2.01260542e+00
1.89313709e+00
1.91474271e+00
2.59659888e+00
2.07796040e+00
2.03792751e+00
2.71878509e+00
1.94429944e+00
1.91280752e+00
1.94149757e+00
2.12206077e+00
1.99243531e+00
2.13030759e+00